EMIM_NTF2.pdb
17000
    1EMI    C01    1   0.936   2.264   7.192
    1EMI    C04    2   1.143   2.279   7.102
    1EMI    C03    3   1.080   2.179   7.039
    1EMI    H07    4   0.849   2.281   7.252
    1EMI    H09    5   1.242   2.314   7.084
    1EMI    H08    6   1.119   2.117   6.962
    1EMI    C05    7   0.842   2.075   7.063
    1EMI    H0B    8   0.746   2.119   7.079
    1EMI    H0C    9   0.852   2.049   6.960
    1EMI    H0D   10   0.851   1.987   7.123
    1EMI    N00   11   0.947   2.171   7.100
    1EMI    C06   12   1.072   2.444   7.292
    1EMI    H0F   13   1.113   2.407   7.383
    1EMI    C0N   14   1.172   2.542   7.227
    1EMI    H0O   15   1.190   2.624   7.294
    1EMI    H0P   16   1.264   2.492   7.207
    1EMI    H0Q   17   1.131   2.580   7.136
    1EMI    N02   18   1.047   2.332   7.200
    1EMI    H0E   19   0.980   2.495   7.312
    2EMI    C01   20   5.110   6.827   6.853
    2EMI    C04   21   5.176   6.728   6.661
    2EMI    C03   22   5.068   6.803   6.633
    2EMI    H07   23   5.105   6.858   6.955
    2EMI    H09   24   5.232   6.668   6.593
    2EMI    H08   25   5.021   6.814   6.537
    2EMI    C05   26   4.914   6.957   6.777
    2EMI    H0B   27   4.936   7.025   6.856
    2EMI    H0C   28   4.897   7.011   6.686
    2EMI    H0D   29   4.827   6.900   6.801
    2EMI    N00   30   5.028   6.866   6.759
    2EMI    C06   31   5.309   6.683   6.880
    2EMI    H0F   32   5.276   6.589   6.919
    2EMI    C0N   33   5.431   6.661   6.788
    2EMI    H0O   34   5.510   6.615   6.844
    2EMI    H0P   35   5.402   6.597   6.707
    2EMI    H0Q   36   5.464   6.755   6.749
    2EMI    N02   37   5.201   6.746   6.804
    2EMI    H0E   38   5.338   6.747   6.961
    3EMI    C01   39   0.381   1.939   0.671
    3EMI    C04   40   0.235   2.111   0.682
    3EMI    C03   41   0.165   1.999   0.695
    3EMI    H07   42   0.471   1.882   0.662
    3EMI    H09   43   0.198   2.212   0.683
    3EMI    H08   44   0.059   1.990   0.707
    3EMI    C05   45   0.229   1.746   0.696
    3EMI    H0B   46   0.312   1.693   0.738
    3EMI    H0C   47   0.143   1.732   0.757
    3EMI    H0D   48   0.210   1.708   0.597
    3EMI    N00   49   0.261   1.889   0.687
    3EMI    C06   50   0.490   2.160   0.650
    3EMI    H0F   51   0.506   2.179   0.546
    3EMI    C0N   52   0.461   2.293   0.722
    3EMI    H0O   53   0.545   2.359   0.710
    3EMI    H0P   54   0.374   2.339   0.680
    3EMI    H0Q   55   0.446   2.275   0.827
    3EMI    N02   56   0.375   2.070   0.667
    3EMI    H0E   57   0.577   2.115   0.692
    4EMI    C01   58   6.129   3.908   0.674
    4EMI    C04   59   6.210   4.115   0.633
    4EMI    C03   60   6.313   4.030   0.628
    4EMI    H07   61   6.064   3.826   0.695
    4EMI    H09   62   6.212   4.220   0.618
    4EMI    H08   63   6.415   4.055   0.609
    4EMI    C05   64   6.335   3.772   0.660
    4EMI    H0B   65   6.273   3.690   0.630
    4EMI    H0C   66   6.419   3.779   0.595
    4EMI    H0D   67   6.370   3.755   0.760
    4EMI    N00   68   6.258   3.897   0.655
    4EMI    C06   69   5.954   4.082   0.677
    4EMI    H0F   70   5.936   4.108   0.779
    4EMI    C0N   71   5.935   4.207   0.589
    4EMI    H0O   72   5.835   4.243   0.600
    4EMI    H0P   73   6.004   4.283   0.619
    4EMI    H0Q   74   5.953   4.181   0.487
    4EMI    N02   75   6.092   4.032   0.662
    4EMI    H0E   76   5.885   4.006   0.647
    5EMI    C01   77   7.175   2.351   6.845
    5EMI    C04   78   7.351   2.221   6.901
    5EMI    C03   79   7.257   2.141   6.849
    5EMI    H07   80   7.111   2.435   6.830
    5EMI    H09   81   7.447   2.192   6.938
    5EMI    H08   82   7.263   2.035   6.836
    5EMI    C05   83   7.018   2.183   6.753
    5EMI    H0B   84   6.978   2.262   6.692
    5EMI    H0C   85   7.036   2.097   6.692
    5EMI    H0D   86   6.948   2.159   6.830
    5EMI    N00   87   7.144   2.228   6.813
    5EMI    C06   88   7.362   2.478   6.944
    5EMI    H0F   89   7.339   2.494   7.047
    5EMI    C0N   90   7.514   2.462   6.927
    5EMI    H0O   91   7.563   2.551   6.961
    5EMI    H0P   92   7.548   2.379   6.985
    5EMI    H0Q   93   7.537   2.446   6.824
    5EMI    N02   94   7.295   2.356   6.897
    5EMI    H0E   95   7.328   2.562   6.886
    6EMI    C01   96   0.836   1.236   1.440
    6EMI    C04   97   0.811   1.012   1.421
    6EMI    C03   98   0.932   1.043   1.373
    6EMI    H07   99   0.818   1.339   1.461
    6EMI    H09  100   0.767   0.915   1.427
    6EMI    H08  101   1.005   0.976   1.332
    6EMI    C05  102   1.062   1.268   1.346
    6EMI    H0B  103   1.071   1.354   1.409
    6EMI    H0C  104   1.151   1.208   1.355
    6EMI    H0D  105   1.051   1.299   1.244
    6EMI    N00  106   0.946   1.188   1.386
    6EMI    C06  107   0.618   1.155   1.523
    6EMI    H0F  108   0.546   1.171   1.446
    6EMI    C0N  109   0.582   1.027   1.602
    6EMI    H0O  110   0.485   1.039   1.645
    6EMI    H0P  111   0.582   0.943   1.536
    6EMI    H0Q  112   0.654   1.011   1.679
    6EMI    N02  113   0.751   1.139   1.464
    6EMI    H0E  114   0.618   1.238   1.590
    7EMI    C01  115   0.974   3.406   4.292
    7EMI    C04  116   1.169   3.333   4.379
    7EMI    C03  117   1.181   3.465   4.360
    7EMI    H07  118   0.874   3.410   4.254
    7EMI    H09  119   1.242   3.266   4.419
    7EMI    H08  120   1.267   3.525   4.382
    7EMI    C05  121   1.020   3.648   4.266
    7EMI    H0B  122   0.915   3.664   4.278
    7EMI    H0C  123   1.074   3.716   4.329
    7EMI    H0D  124   1.047   3.665   4.164
    7EMI    N00  125   1.053   3.510   4.304
    7EMI    C06  126   0.975   3.163   4.337
    7EMI    H0F  127   0.996   3.114   4.244
    7EMI    C0N  128   1.036   3.083   4.453
    7EMI    H0O  129   0.993   2.984   4.454
    7EMI    H0P  130   1.141   3.075   4.440
    7EMI    H0Q  131   1.014   3.132   4.545
    7EMI    N02  132   1.034   3.298   4.335
    7EMI    H0E  133   0.869   3.171   4.350
    8EMI    C01  134   7.382   7.069   1.117
    8EMI    C04  135   7.413   7.283   1.054
    8EMI    C03  136   7.519   7.214   1.012
    8EMI    H07  137   7.341   6.980   1.159
    8EMI    H09  138   7.395   7.388   1.040
    8EMI    H08  139   7.603   7.251   0.958
    8EMI    C05  140   7.588   6.962   1.030
    8EMI    H0B  141   7.531   6.872   1.022
    8EMI    H0C  142   7.641   6.979   0.939
    8EMI    H0D  143   7.656   6.954   1.111
    8EMI    N00  144   7.497   7.075   1.054
    8EMI    C06  145   7.197   7.217   1.185
    8EMI    H0F  146   7.213   7.244   1.287
    8EMI    C0N  147   7.130   7.335   1.111
    8EMI    H0O  148   7.036   7.358   1.157
    8EMI    H0P  149   7.194   7.421   1.116
    8EMI    H0Q  150   7.115   7.309   1.008
    8EMI    N02  151   7.326   7.187   1.122
    8EMI    H0E  152   7.133   7.132   1.180
    9EMI    C01  153   0.715   3.275   6.513
    9EMI    C04  154   0.622   3.478   6.486
    9EMI    C03  155   0.755   3.496   6.490
    9EMI    H07  156   0.729   3.169   6.525
    9EMI    H09  157   0.548   3.554   6.474
    9EMI    H08  158   0.808   3.588   6.482
    9EMI    C05  159   0.956   3.331   6.517
    9EMI    H0B  160   0.974   3.233   6.478
    9EMI    H0C  161   1.012   3.403   6.461
    9EMI    H0D  162   0.986   3.335   6.619
    9EMI    N00  163   0.812   3.362   6.507
    9EMI    C06  164   0.468   3.268   6.503
    9EMI    H0F  165   0.432   3.263   6.604
    9EMI    C0N  166   0.369   3.348   6.417
    9EMI    H0O  167   0.274   3.300   6.418
    9EMI    H0P  168   0.360   3.447   6.456
    9EMI    H0Q  169   0.405   3.353   6.316
    9EMI    N02  170   0.600   3.334   6.501
    9EMI    H0E  171   0.478   3.169   6.464
   10EMI    C01  172   7.323   1.404   3.920
   10EMI    C04  173   7.342   1.472   4.134
   10EMI    C03  174   7.466   1.466   4.083
   10EMI    H07  175   7.283   1.371   3.826
   10EMI    H09  176   7.315   1.501   4.233
   10EMI    H08  177   7.557   1.489   4.133
   10EMI    C05  178   7.559   1.400   3.849
   10EMI    H0B  179   7.524   1.419   3.749
   10EMI    H0C  180   7.640   1.466   3.871
   10EMI    H0D  181   7.594   1.299   3.855
   10EMI    N00  182   7.450   1.421   3.944
   10EMI    C06  183   7.105   1.423   4.036
   10EMI    H0F  184   7.077   1.325   4.068
   10EMI    C0N  185   7.054   1.527   4.137
   10EMI    H0O  186   6.948   1.521   4.144
   10EMI    H0P  187   7.098   1.507   4.233
   10EMI    H0Q  188   7.082   1.625   4.105
   10EMI    N02  189   7.252   1.431   4.026
   10EMI    H0E  190   7.062   1.442   3.940
   11EMI    C01  191   6.913   2.490   2.098
   11EMI    C04  192   6.979   2.678   1.991
   11EMI    C03  193   7.034   2.574   1.927
   11EMI    H07  194   6.867   2.422   2.167
   11EMI    H09  195   6.989   2.781   1.968
   11EMI    H08  196   7.097   2.579   1.841
   11EMI    C05  197   7.025   2.316   1.962
   11EMI    H0B  198   6.945   2.250   1.991
   11EMI    H0C  199   7.040   2.309   1.857
   11EMI    H0D  200   7.114   2.288   2.014
   11EMI    N00  201   6.989   2.454   1.998
   11EMI    C06  202   6.824   2.696   2.201
   11EMI    H0F  203   6.886   2.720   2.284
   11EMI    C0N  204   6.772   2.826   2.136
   11EMI    H0O  205   6.715   2.881   2.208
   11EMI    H0P  206   6.855   2.885   2.103
   11EMI    H0Q  207   6.710   2.802   2.052
   11EMI    N02  208   6.902   2.620   2.102
   11EMI    H0E  209   6.740   2.637   2.233
   12EMI    C01  210   2.299   3.824   2.399
   12EMI    C04  211   2.368   3.609   2.399
   12EMI    C03  212   2.237   3.609   2.371
   12EMI    H07  213   2.297   3.930   2.406
   12EMI    H09  214   2.432   3.523   2.406
   12EMI    H08  215   2.175   3.523   2.352
   12EMI    C05  216   2.059   3.798   2.346
   12EMI    H0B  217   2.064   3.895   2.303
   12EMI    H0C  218   2.009   3.731   2.280
   12EMI    H0D  219   2.005   3.803   2.439
   12EMI    N00  220   2.195   3.749   2.372
   12EMI    C06  221   2.540   3.799   2.449
   12EMI    H0F  222   2.552   3.804   2.555
   12EMI    C0N  223   2.645   3.703   2.390
   12EMI    H0O  224   2.743   3.738   2.413
   12EMI    H0P  225   2.632   3.605   2.432
   12EMI    H0Q  226   2.633   3.698   2.283
   12EMI    N02  227   2.405   3.749   2.417
   12EMI    H0E  228   2.553   3.896   2.407
   13EMI    C01  229   0.903   1.609   6.091
   13EMI    C04  230   0.683   1.605   6.039
   13EMI    C03  231   0.726   1.730   6.022
   13EMI    H07  232   1.001   1.580   6.122
   13EMI    H09  233   0.584   1.568   6.023
   13EMI    H08  234   0.667   1.814   5.989
   13EMI    C05  235   0.957   1.847   6.053
   13EMI    H0B  236   1.057   1.815   6.031
   13EMI    H0C  237   0.924   1.914   5.977
   13EMI    H0D  238   0.956   1.896   6.148
   13EMI    N00  239   0.868   1.730   6.056
   13EMI    C06  240   0.801   1.385   6.116
   13EMI    H0F  241   0.778   1.371   6.219
   13EMI    C0N  242   0.696   1.312   6.030
   13EMI    H0O  243   0.697   1.208   6.053
   13EMI    H0P  244   0.599   1.353   6.050
   13EMI    H0Q  245   0.719   1.326   5.926
   13EMI    N02  246   0.800   1.528   6.084
   13EMI    H0E  247   0.898   1.345   6.095
   14EMI    C01  248   4.768   3.784   4.049
   14EMI    C04  249   4.975   3.763   3.961
   14EMI    C03  250   4.990   3.795   4.090
   14EMI    H07  251   4.662   3.787   4.060
   14EMI    H09  252   5.053   3.745   3.890
   14EMI    H08  253   5.082   3.808   4.143
   14EMI    C05  254   4.820   3.843   4.283
   14EMI    H0B  255   4.727   3.797   4.309
   14EMI    H0C  256   4.897   3.807   4.348
   14EMI    H0D  257   4.812   3.949   4.292
   14EMI    N00  258   4.854   3.808   4.144
   14EMI    C06  259   4.767   3.724   3.809
   14EMI    H0F  260   4.751   3.814   3.753
   14EMI    C0N  261   4.858   3.630   3.728
   14EMI    H0O  262   4.811   3.606   3.635
   14EMI    H0P  263   4.952   3.677   3.710
   14EMI    H0Q  264   4.874   3.539   3.784
   14EMI    N02  265   4.831   3.756   3.937
   14EMI    H0E  266   4.673   3.677   3.827
   15EMI    C01  267   2.337   4.876   0.606
   15EMI    C04  268   2.138   4.844   0.707
   15EMI    C03  269   2.229   4.777   0.778
   15EMI    H07  270   2.413   4.909   0.539
   15EMI    H09  271   2.033   4.850   0.727
   15EMI    H08  272   2.212   4.718   0.866
   15EMI    C05  273   2.487   4.745   0.753
   15EMI    H0B  274   2.565   4.812   0.724
   15EMI    H0C  275   2.488   4.732   0.859
   15EMI    H0D  276   2.503   4.650   0.706
   15EMI    N00  277   2.357   4.799   0.710
   15EMI    C06  278   2.151   4.992   0.492
   15EMI    H0F  279   2.120   4.931   0.410
   15EMI    C0N  280   2.028   5.065   0.550
   15EMI    H0O  281   1.985   5.127   0.474
   15EMI    H0P  282   1.956   4.993   0.583
   15EMI    H0Q  283   2.058   5.126   0.632
   15EMI    N02  284   2.211   4.907   0.597
   15EMI    H0E  285   2.223   5.063   0.459
   16EMI    C01  286   7.595   2.556   2.874
   16EMI    C04  287   7.782   2.680   2.895
   16EMI    C03  288   7.728   2.670   3.016
   16EMI    H07  289   7.515   2.497   2.833
   16EMI    H09  290   7.872   2.732   2.869
   16EMI    H08  291   7.765   2.712   3.107
   16EMI    C05  292   7.513   2.552   3.107
   16EMI    H0B  293   7.468   2.458   3.084
   16EMI    H0C  294   7.567   2.544   3.200
   16EMI    H0D  295   7.437   2.627   3.116
   16EMI    N00  296   7.606   2.589   3.000
   16EMI    C06  297   7.714   2.588   2.660
   16EMI    H0F  298   7.665   2.668   2.608
   16EMI    C0N  299   7.865   2.591   2.628
   16EMI    H0O  300   7.879   2.578   2.523
   16EMI    H0P  301   7.906   2.684   2.659
   16EMI    H0Q  302   7.913   2.511   2.680
   16EMI    N02  303   7.694   2.605   2.804
   16EMI    H0E  304   7.672   2.495   2.629
   17EMI    C01  305   0.636   0.743   6.687
   17EMI    C04  306   0.501   0.608   6.568
   17EMI    C03  307   0.589   0.530   6.631
   17EMI    H07  308   0.682   0.830   6.731
   17EMI    H09  309   0.422   0.576   6.503
   17EMI    H08  310   0.595   0.423   6.628
   17EMI    C05  311   0.787   0.579   6.794
   17EMI    H0B  312   0.799   0.650   6.873
   17EMI    H0C  313   0.767   0.482   6.835
   17EMI    H0D  314   0.877   0.576   6.736
   17EMI    N00  315   0.675   0.620   6.708
   17EMI    C06  316   0.464   0.866   6.560
   17EMI    H0F  317   0.509   0.902   6.470
   17EMI    C0N  318   0.316   0.832   6.532
   17EMI    H0O  319   0.265   0.920   6.499
   17EMI    H0P  320   0.310   0.757   6.457
   17EMI    H0Q  321   0.270   0.796   6.622
   17EMI    N02  322   0.534   0.746   6.606
   17EMI    H0E  323   0.469   0.942   6.635
   18EMI    C01  324   4.690   3.319   4.178
   18EMI    C04  325   4.464   3.319   4.176
   18EMI    C03  326   4.502   3.241   4.278
   18EMI    H07  327   4.792   3.338   4.154
   18EMI    H09  328   4.363   3.341   4.147
   18EMI    H08  329   4.439   3.189   4.347
   18EMI    C05  330   4.736   3.172   4.371
   18EMI    H0B  331   4.828   3.226   4.384
   18EMI    H0C  332   4.687   3.163   4.466
   18EMI    H0D  333   4.758   3.074   4.333
   18EMI    N00  334   4.649   3.243   4.277
   18EMI    C06  335   4.594   3.456   3.996
   18EMI    H0F  336   4.596   3.397   3.907
   18EMI    C0N  337   4.470   3.548   3.994
   18EMI    H0O  338   4.476   3.613   3.909
   18EMI    H0P  339   4.382   3.489   3.989
   18EMI    H0Q  340   4.468   3.607   4.084
   18EMI    N02  341   4.587   3.367   4.113
   18EMI    H0E  342   4.683   3.516   4.002
   19EMI    C01  343   1.189   5.569   3.550
   19EMI    C04  344   1.015   5.575   3.694
   19EMI    C03  345   0.991   5.476   3.606
   19EMI    H07  346   1.282   5.591   3.501
   19EMI    H09  347   0.953   5.605   3.775
   19EMI    H08  348   0.906   5.412   3.604
   19EMI    C05  349   1.124   5.384   3.401
   19EMI    H0B  350   1.228   5.367   3.385
   19EMI    H0C  351   1.076   5.290   3.423
   19EMI    H0D  352   1.080   5.427   3.313
   19EMI    N00  353   1.106   5.475   3.515
   19EMI    C06  354   1.211   5.745   3.723
   19EMI    H0F  355   1.180   5.838   3.679
   19EMI    C0N  356   1.174   5.744   3.872
   19EMI    H0O  357   1.223   5.826   3.922
   19EMI    H0P  358   1.068   5.754   3.883
   19EMI    H0Q  359   1.206   5.652   3.916
   19EMI    N02  360   1.144   5.633   3.655
   19EMI    H0E  361   1.317   5.735   3.712
   20EMI    C01  362   3.567   1.459   0.468
   20EMI    C04  363   3.652   1.580   0.637
   20EMI    C03  364   3.534   1.635   0.605
   20EMI    H07  365   3.553   1.385   0.391
   20EMI    H09  366   3.719   1.613   0.714
   20EMI    H08  367   3.488   1.720   0.650
   20EMI    C05  368   3.353   1.577   0.426
   20EMI    H0B  369   3.315   1.483   0.391
   20EMI    H0C  370   3.284   1.621   0.494
   20EMI    H0D  371   3.369   1.642   0.343
   20EMI    N00  372   3.481   1.554   0.495
   20EMI    C06  373   3.786   1.376   0.545
   20EMI    H0F  374   3.860   1.414   0.479
   20EMI    C0N  375   3.845   1.366   0.687
   20EMI    H0O  376   3.929   1.300   0.686
   20EMI    H0P  377   3.876   1.463   0.720
   20EMI    H0Q  378   3.770   1.327   0.754
   20EMI    N02  379   3.670   1.466   0.547
   20EMI    H0E  380   3.755   1.279   0.513
   21EMI    C01  381   6.779   0.843   3.596
   21EMI    C04  382   6.935   0.681   3.620
   21EMI    C03  383   6.830   0.626   3.560
   21EMI    H07  384   6.728   0.937   3.599
   21EMI    H09  385   7.027   0.633   3.647
   21EMI    H08  386   6.820   0.524   3.528
   21EMI    C05  387   6.597   0.719   3.484
   21EMI    H0B  388   6.569   0.812   3.440
   21EMI    H0C  389   6.601   0.643   3.409
   21EMI    H0D  390   6.526   0.691   3.559
   21EMI    N00  391   6.730   0.733   3.545
   21EMI    C06  392   6.986   0.923   3.706
   21EMI    H0F  393   6.968   0.923   3.812
   21EMI    C0N  394   7.133   0.889   3.680
   21EMI    H0O  395   7.196   0.962   3.726
   21EMI    H0P  396   7.156   0.792   3.720
   21EMI    H0Q  397   7.152   0.888   3.574
   21EMI    N02  398   6.900   0.822   3.642
   21EMI    H0E  399   6.964   1.019   3.666
   22EMI    C01  400   2.024   4.231   4.893
   22EMI    C04  401   2.100   4.052   5.005
   22EMI    C03  402   1.980   4.082   5.056
   22EMI    H07  403   2.016   4.313   4.824
   22EMI    H09  404   2.164   3.972   5.036
   22EMI    H08  405   1.929   4.031   5.135
   22EMI    C05  406   1.805   4.268   5.001
   22EMI    H0B  407   1.772   4.310   4.909
   22EMI    H0C  408   1.732   4.198   5.036
   22EMI    H0D  409   1.817   4.345   5.074
   22EMI    N00  410   1.933   4.199   4.981
   22EMI    C06  411   2.247   4.156   4.816
   22EMI    H0F  412   2.320   4.219   4.864
   22EMI    C0N  413   2.304   4.015   4.799
   22EMI    H0O  414   2.392   4.019   4.738
   22EMI    H0P  415   2.329   3.974   4.894
   22EMI    H0Q  416   2.231   3.952   4.751
   22EMI    N02  417   2.126   4.150   4.900
   22EMI    H0E  418   2.222   4.197   4.721
   23EMI    C01  419   2.783   6.413   3.803
   23EMI    C04  420   2.568   6.384   3.741
   23EMI    C03  421   2.589   6.516   3.749
   23EMI    H07  422   2.884   6.394   3.831
   23EMI    H09  423   2.476   6.335   3.714
   23EMI    H08  424   2.519   6.594   3.730
   23EMI    C05  425   2.798   6.659   3.811
   23EMI    H0B  426   2.902   6.648   3.788
   23EMI    H0C  427   2.756   6.734   3.747
   23EMI    H0D  428   2.788   6.689   3.913
   23EMI    N00  429   2.729   6.531   3.789
   23EMI    C06  430   2.719   6.175   3.781
   23EMI    H0F  431   2.697   6.138   3.879
   23EMI    C0N  432   2.628   6.104   3.678
   23EMI    H0O  433   2.646   5.999   3.682
   23EMI    H0P  434   2.526   6.124   3.702
   23EMI    H0Q  435   2.650   6.141   3.580
   23EMI    N02  436   2.695   6.320   3.776
   23EMI    H0E  437   2.821   6.155   3.757
   24EMI    C01  438   4.924   0.398   4.564
   24EMI    C04  439   5.139   0.349   4.515
   24EMI    C03  440   5.070   0.235   4.508
   24EMI    H07  441   4.834   0.450   4.590
   24EMI    H09  442   5.244   0.362   4.498
   24EMI    H08  443   5.108   0.138   4.484
   24EMI    C05  444   4.819   0.175   4.545
   24EMI    H0B  445   4.728   0.226   4.519
   24EMI    H0C  446   4.836   0.095   4.476
   24EMI    H0D  447   4.809   0.135   4.644
   24EMI    N00  448   4.931   0.269   4.540
   24EMI    C06  449   5.072   0.595   4.570
   24EMI    H0F  450   5.098   0.613   4.673
   24EMI    C0N  451   5.191   0.635   4.480
   24EMI    H0O  452   5.213   0.739   4.494
   24EMI    H0P  453   5.276   0.577   4.506
   24EMI    H0Q  454   5.165   0.617   4.378
   24EMI    N02  455   5.042   0.453   4.551
   24EMI    H0E  456   4.986   0.654   4.545
   25EMI    C01  457   6.296   6.726   7.497
   25EMI    C04  458   6.264   6.730   7.274
   25EMI    C03  459   6.264   6.857   7.317
   25EMI    H07  460   6.312   6.692   7.598
   25EMI    H09  461   6.252   6.696   7.173
   25EMI    H08  462   6.251   6.945   7.257
   25EMI    C05  463   6.291   6.967   7.552
   25EMI    H0B  464   6.355   6.944   7.635
   25EMI    H0C  465   6.330   7.051   7.499
   25EMI    H0D  466   6.193   6.990   7.588
   25EMI    N00  467   6.284   6.851   7.462
   25EMI    C06  468   6.293   6.501   7.396
   25EMI    H0F  469   6.195   6.460   7.410
   25EMI    C0N  470   6.350   6.450   7.261
   25EMI    H0O  471   6.356   6.343   7.263
   25EMI    H0P  472   6.286   6.481   7.181
   25EMI    H0Q  473   6.448   6.491   7.247
   25EMI    N02  474   6.285   6.647   7.393
   25EMI    H0E  475   6.357   6.469   7.475
   26EMI    C01  476   3.580   6.023   4.602
   26EMI    C04  477   3.497   5.915   4.783
   26EMI    C03  478   3.539   5.822   4.697
   26EMI    H07  479   3.610   6.099   4.534
   26EMI    H09  480   3.452   5.899   4.878
   26EMI    H08  481   3.535   5.715   4.710
   26EMI    C05  482   3.650   5.833   4.461
   26EMI    H0B  483   3.724   5.898   4.420
   26EMI    H0C  484   3.696   5.739   4.487
   26EMI    H0D  485   3.573   5.816   4.388
   26EMI    N00  486   3.592   5.894   4.581
   26EMI    C06  487   3.494   6.176   4.776
   26EMI    H0F  488   3.396   6.206   4.747
   26EMI    C0N  489   3.502   6.168   4.930
   26EMI    H0O  490   3.480   6.264   4.972
   26EMI    H0P  491   3.431   6.097   4.966
   26EMI    H0Q  492   3.601   6.138   4.959
   26EMI    N02  493   3.524   6.044   4.719
   26EMI    H0E  494   3.565   6.247   4.741
   27EMI    C01  495   1.554   3.804   3.862
   27EMI    C04  496   1.691   3.630   3.906
   27EMI    C03  497   1.767   3.740   3.900
   27EMI    H07  498   1.467   3.863   3.841
   27EMI    H09  499   1.723   3.530   3.925
   27EMI    H08  500   1.873   3.746   3.913
   27EMI    C05  501   1.714   3.992   3.856
   27EMI    H0B  502   1.634   4.055   3.887
   27EMI    H0C  503   1.801   4.012   3.916
   27EMI    H0D  504   1.737   4.011   3.753
   27EMI    N00  505   1.675   3.851   3.871
   27EMI    C06  506   1.435   3.588   3.877
   27EMI    H0F  507   1.419   3.552   3.777
   27EMI    C0N  508   1.456   3.468   3.972
   27EMI    H0O  509   1.369   3.405   3.969
   27EMI    H0P  510   1.541   3.413   3.940
   27EMI    H0Q  511   1.471   3.504   4.072
   27EMI    N02  512   1.553   3.675   3.881
   27EMI    H0E  513   1.349   3.644   3.909
   28EMI    C01  514   0.252   4.652   6.249
   28EMI    C04  515   0.411   4.494   6.278
   28EMI    C03  516   0.294   4.430   6.259
   28EMI    H07  517   0.201   4.745   6.239
   28EMI    H09  518   0.507   4.450   6.295
   28EMI    H08  519   0.279   4.324   6.258
   28EMI    C05  520   0.050   4.512   6.217
   28EMI    H0B  521   0.010   4.592   6.158
   28EMI    H0C  522   0.037   4.419   6.165
   28EMI    H0D  523  -0.001   4.508   6.311
   28EMI    N00  524   0.193   4.535   6.241
   28EMI    C06  525   0.477   4.747   6.286
   28EMI    H0F  526   0.484   4.774   6.389
   28EMI    C0N  527   0.615   4.700   6.236
   28EMI    H0O  528   0.685   4.779   6.247
   28EMI    H0P  529   0.647   4.615   6.293
   28EMI    H0Q  530   0.608   4.672   6.133
   28EMI    N02  531   0.380   4.637   6.271
   28EMI    H0E  532   0.445   4.831   6.228
   29EMI    C01  533   3.553   3.361   4.087
   29EMI    C04  534   3.508   3.150   4.154
   29EMI    C03  535   3.628   3.182   4.204
   29EMI    H07  536   3.545   3.457   4.042
   29EMI    H09  537   3.456   3.057   4.166
   29EMI    H08  538   3.691   3.121   4.264
   29EMI    C05  539   3.774   3.398   4.190
   29EMI    H0B  540   3.749   3.502   4.193
   29EMI    H0C  541   3.813   3.368   4.285
   29EMI    H0D  542   3.848   3.381   4.114
   29EMI    N00  543   3.654   3.320   4.159
   29EMI    C06  544   3.335   3.277   4.006
   29EMI    H0F  545   3.348   3.244   3.905
   29EMI    C0N  546   3.229   3.189   4.075
   29EMI    H0O  547   3.136   3.197   4.022
   29EMI    H0P  548   3.262   3.087   4.075
   29EMI    H0Q  549   3.215   3.222   4.176
   29EMI    N02  550   3.462   3.267   4.079
   29EMI    H0E  551   3.302   3.379   4.006
   30EMI    C01  552   0.828   4.388   0.666
   30EMI    C04  553   0.692   4.290   0.514
   30EMI    C03  554   0.618   4.317   0.623
   30EMI    H07  555   0.914   4.429   0.714
   30EMI    H09  556   0.659   4.244   0.424
   30EMI    H08  557   0.514   4.296   0.636
   30EMI    C05  558   0.671   4.426   0.853
   30EMI    H0B  559   0.733   4.509   0.881
   30EMI    H0C  560   0.569   4.457   0.854
   30EMI    H0D  561   0.685   4.347   0.924
   30EMI    N00  562   0.709   4.380   0.719
   30EMI    C06  563   0.943   4.329   0.455
   30EMI    H0F  564   0.994   4.236   0.471
   30EMI    C0N  565   0.896   4.337   0.309
   30EMI    H0O  566   0.980   4.331   0.244
   30EMI    H0P  567   0.829   4.255   0.289
   30EMI    H0Q  568   0.845   4.429   0.293
   30EMI    N02  569   0.827   4.337   0.545
   30EMI    H0E  570   1.010   4.410   0.475
   31EMI    C01  571   1.414   3.387   3.294
   31EMI    C04  572   1.363   3.175   3.235
   31EMI    C03  573   1.301   3.200   3.351
   31EMI    H07  574   1.455   3.485   3.295
   31EMI    H09  575   1.360   3.084   3.179
   31EMI    H08  576   1.239   3.133   3.407
   31EMI    C05  577   1.291   3.409   3.507
   31EMI    H0B  578   1.284   3.514   3.486
   31EMI    H0C  579   1.195   3.372   3.536
   31EMI    H0D  580   1.361   3.393   3.587
   31EMI    N00  581   1.336   3.337   3.387
   31EMI    C06  582   1.518   3.317   3.081
   31EMI    H0F  583   1.619   3.288   3.102
   31EMI    C0N  584   1.463   3.231   2.966
   31EMI    H0O  585   1.523   3.245   2.878
   31EMI    H0P  586   1.466   3.128   2.994
   31EMI    H0Q  587   1.362   3.260   2.945
   31EMI    N02  588   1.435   3.298   3.201
   31EMI    H0E  589   1.515   3.420   3.052
   32EMI    C01  590   6.176   1.922   3.665
   32EMI    C04  591   6.323   1.757   3.711
   32EMI    C03  592   6.298   1.821   3.826
   32EMI    H07  593   6.109   1.988   3.614
   32EMI    H09  594   6.388   1.673   3.697
   32EMI    H08  595   6.339   1.799   3.922
   32EMI    C05  596   6.146   2.024   3.888
   32EMI    H0B  597   6.048   2.052   3.856
   32EMI    H0C  598   6.140   1.979   3.985
   32EMI    H0D  599   6.208   2.110   3.893
   32EMI    N00  600   6.202   1.927   3.793
   32EMI    C06  601   6.237   1.788   3.466
   32EMI    H0F  602   6.312   1.842   3.413
   32EMI    C0N  603   6.262   1.637   3.451
   32EMI    H0O  604   6.258   1.611   3.347
   32EMI    H0P  605   6.359   1.613   3.490
   32EMI    H0Q  606   6.187   1.583   3.504
   32EMI    N02  607   6.242   1.824   3.609
   32EMI    H0E  608   6.141   1.813   3.427
   33EMI    C01  609   1.788   4.507   5.676
   33EMI    C04  610   1.680   4.616   5.842
   33EMI    C03  611   1.609   4.633   5.730
   33EMI    H07  612   1.860   4.449   5.621
   33EMI    H09  613   1.658   4.654   5.939
   33EMI    H08  614   1.518   4.688   5.720
   33EMI    C05  615   1.640   4.553   5.483
   33EMI    H0B  616   1.674   4.461   5.442
   33EMI    H0C  617   1.533   4.558   5.477
   33EMI    H0D  618   1.682   4.635   5.429
   33EMI    N00  619   1.681   4.562   5.624
   33EMI    C06  620   1.903   4.489   5.894
   33EMI    H0F  621   1.981   4.562   5.895
   33EMI    C0N  622   1.846   4.472   6.036
   33EMI    H0O  623   1.924   4.440   6.102
   33EMI    H0P  624   1.807   4.566   6.070
   33EMI    H0Q  625   1.768   4.399   6.035
   33EMI    N02  626   1.796   4.534   5.803
   33EMI    H0E  627   1.942   4.396   5.859
   34EMI    C01  628   6.595   5.822   4.910
   34EMI    C04  629   6.641   5.665   4.754
   34EMI    C03  630   6.549   5.614   4.837
   34EMI    H07  631   6.595   5.913   4.967
   34EMI    H09  632   6.685   5.618   4.669
   34EMI    H08  633   6.505   5.516   4.832
   34EMI    C05  634   6.427   5.706   5.048
   34EMI    H0B  635   6.388   5.803   5.072
   34EMI    H0C  636   6.347   5.640   5.021
   34EMI    H0D  637   6.478   5.667   5.134
   34EMI    N00  638   6.522   5.718   4.937
   34EMI    C06  639   6.764   5.896   4.744
   34EMI    H0F  640   6.860   5.882   4.788
   34EMI    C0N  641   6.773   5.871   4.593
   34EMI    H0O  642   6.842   5.940   4.549
   34EMI    H0P  643   6.806   5.771   4.575
   34EMI    H0Q  644   6.676   5.884   4.548
   34EMI    N02  645   6.669   5.800   4.804
   34EMI    H0E  646   6.730   5.995   4.762
   35EMI    C01  647   6.137   5.102   1.019
   35EMI    C04  648   6.005   4.989   1.164
   35EMI    C03  649   6.107   5.040   1.234
   35EMI    H07  650   6.176   5.145   0.929
   35EMI    H09  651   5.925   4.930   1.201
   35EMI    H08  652   6.124   5.030   1.339
   35EMI    C05  653   6.314   5.186   1.169
   35EMI    H0B  654   6.326   5.267   1.101
   35EMI    H0C  655   6.309   5.223   1.269
   35EMI    H0D  656   6.398   5.120   1.160
   35EMI    N00  657   6.190   5.113   1.137
   35EMI    C06  658   5.940   4.997   0.911
   35EMI    H0F  659   5.973   4.905   0.867
   35EMI    C0N  660   5.795   4.982   0.960
   35EMI    H0O  661   5.732   4.958   0.877
   35EMI    H0P  662   5.790   4.904   1.033
   35EMI    H0Q  663   5.762   5.074   1.004
   35EMI    N02  664   6.027   5.030   1.025
   35EMI    H0E  665   5.945   5.075   0.838
   36EMI    C01  666   7.271   2.679   7.297
   36EMI    C04  667   7.048   2.684   7.336
   36EMI    C03  668   7.087   2.810   7.314
   36EMI    H07  669   7.372   2.646   7.283
   36EMI    H09  670   6.949   2.650   7.357
   36EMI    H08  671   7.025   2.897   7.314
   36EMI    C05  672   7.318   2.919   7.260
   36EMI    H0B  673   7.399   2.888   7.198
   36EMI    H0C  674   7.261   2.995   7.210
   36EMI    H0D  675   7.356   2.959   7.351
   36EMI    N00  676   7.231   2.804   7.289
   36EMI    C06  677   7.176   2.456   7.340
   36EMI    H0F  678   7.195   2.432   7.443
   36EMI    C0N  679   7.042   2.393   7.297
   36EMI    H0O  680   7.046   2.287   7.309
   36EMI    H0P  681   6.963   2.433   7.358
   36EMI    H0Q  682   7.022   2.417   7.195
   36EMI    N02  683   7.169   2.602   7.324
   36EMI    H0E  684   7.254   2.416   7.280
   37EMI    C01  685   5.430   5.082   4.610
   37EMI    C04  686   5.313   5.044   4.799
   37EMI    C03  687   5.394   4.939   4.781
   37EMI    H07  688   5.468   5.127   4.520
   37EMI    H09  689   5.244   5.059   4.879
   37EMI    H08  690   5.403   4.853   4.844
   37EMI    C05  691   5.570   4.879   4.598
   37EMI    H0B  692   5.642   4.938   4.545
   37EMI    H0C  693   5.619   4.823   4.675
   37EMI    H0D  694   5.523   4.811   4.529
   37EMI    N00  695   5.469   4.967   4.658
   37EMI    C06  696   5.272   5.264   4.665
   37EMI    H0F  697   5.184   5.249   4.606
   37EMI    C0N  698   5.232   5.326   4.800
   37EMI    H0O  699   5.184   5.420   4.784
   37EMI    H0P  700   5.166   5.259   4.851
   37EMI    H0Q  701   5.320   5.341   4.859
   37EMI    N02  702   5.338   5.135   4.687
   37EMI    H0E  703   5.338   5.330   4.613
   38EMI    C01  704   1.354   3.486   5.293
   38EMI    C04  705   1.547   3.431   5.397
   38EMI    C03  706   1.486   3.317   5.364
   38EMI    H07  707   1.274   3.542   5.250
   38EMI    H09  708   1.641   3.442   5.448
   38EMI    H08  709   1.521   3.217   5.383
   38EMI    C05  710   1.261   3.263   5.243
   38EMI    H0B  711   1.212   3.308   5.159
   38EMI    H0C  712   1.309   3.172   5.212
   38EMI    H0D  713   1.189   3.240   5.319
   38EMI    N00  714   1.361   3.355   5.297
   38EMI    C06  715   1.486   3.683   5.364
   38EMI    H0F  716   1.445   3.718   5.457
   38EMI    C0N  717   1.638   3.707   5.364
   38EMI    H0O  718   1.657   3.812   5.374
   38EMI    H0P  719   1.683   3.655   5.445
   38EMI    H0Q  720   1.680   3.672   5.271
   38EMI    N02  721   1.460   3.539   5.350
   38EMI    H0E  722   1.441   3.735   5.283
   39EMI    C01  723   1.163   4.273   0.813
   39EMI    C04  724   1.376   4.248   0.745
   39EMI    C03  725   1.345   4.140   0.818
   39EMI    H07  726   1.064   4.312   0.829
   39EMI    H09  727   1.470   4.269   0.697
   39EMI    H08  728   1.409   4.057   0.840
   39EMI    C05  729   1.129   4.066   0.943
   39EMI    H0B  730   1.025   4.073   0.918
   39EMI    H0C  731   1.163   3.966   0.926
   39EMI    H0D  732   1.142   4.090   1.047
   39EMI    N00  733   1.206   4.159   0.861
   39EMI    C06  734   1.243   4.462   0.675
   39EMI    H0F  735   1.272   4.540   0.742
   39EMI    C0N  736   1.334   4.464   0.551
   39EMI    H0O  737   1.325   4.558   0.502
   39EMI    H0P  738   1.436   4.449   0.581
   39EMI    H0Q  739   1.305   4.385   0.484
   39EMI    N02  740   1.256   4.332   0.744
   39EMI    H0E  741   1.142   4.476   0.645
   40EMI    C01  742   6.083   2.943   1.698
   40EMI    C04  743   6.038   3.087   1.865
   40EMI    C03  744   6.170   3.088   1.847
   40EMI    H07  745   6.072   2.871   1.619
   40EMI    H09  746   5.982   3.144   1.937
   40EMI    H08  747   6.242   3.146   1.900
   40EMI    C05  748   6.329   2.962   1.682
   40EMI    H0B  749   6.319   2.936   1.579
   40EMI    H0C  750   6.393   3.047   1.692
   40EMI    H0D  751   6.371   2.879   1.736
   40EMI    N00  752   6.197   2.994   1.738
   40EMI    C06  753   5.842   2.958   1.751
   40EMI    H0F  754   5.817   2.875   1.814
   40EMI    C0N  755   5.755   3.079   1.789
   40EMI    H0O  756   5.652   3.055   1.777
   40EMI    H0P  757   5.774   3.106   1.891
   40EMI    H0Q  758   5.780   3.162   1.726
   40EMI    N02  759   5.984   2.992   1.767
   40EMI    H0E  760   5.823   2.932   1.648
   41EMI    C01  761   2.060   3.913   4.443
   41EMI    C04  762   1.899   3.973   4.589
   41EMI    C03  763   1.961   3.868   4.641
   41EMI    H07  764   2.124   3.909   4.358
   41EMI    H09  765   1.817   4.028   4.632
   41EMI    H08  766   1.940   3.820   4.735
   41EMI    C05  767   2.160   3.719   4.560
   41EMI    H0B  768   2.251   3.743   4.509
   41EMI    H0C  769   2.179   3.702   4.663
   41EMI    H0D  770   2.118   3.630   4.517
   41EMI    N00  771   2.065   3.830   4.545
   41EMI    C06  772   1.929   4.108   4.367
   41EMI    H0F  773   1.855   4.073   4.298
   41EMI    C0N  774   1.872   4.228   4.446
   41EMI    H0O  775   1.847   4.306   4.378
   41EMI    H0P  776   1.785   4.197   4.500
   41EMI    H0Q  777   1.946   4.263   4.515
   41EMI    N02  778   1.964   4.000   4.461
   41EMI    H0E  779   2.016   4.139   4.314
   42EMI    C01  780   6.555   4.680   0.907
   42EMI    C04  781   6.455   4.839   1.031
   42EMI    C03  782   6.580   4.881   1.007
   42EMI    H07  783   6.574   4.591   0.851
   42EMI    H09  784   6.380   4.890   1.088
   42EMI    H08  785   6.625   4.972   1.040
   42EMI    C05  786   6.780   4.777   0.875
   42EMI    H0B  787   6.785   4.723   0.783
   42EMI    H0C  788   6.811   4.879   0.859
   42EMI    H0D  789   6.845   4.732   0.947
   42EMI    N00  790   6.642   4.776   0.926
   42EMI    C06  791   6.321   4.625   0.965
   42EMI    H0F  792   6.324   4.559   1.049
   42EMI    C0N  793   6.196   4.714   0.974
   42EMI    H0O  794   6.109   4.653   0.973
   42EMI    H0P  795   6.200   4.772   1.064
   42EMI    H0Q  796   6.194   4.781   0.890
   42EMI    N02  797   6.442   4.709   0.965
   42EMI    H0E  798   6.318   4.568   0.874
   43EMI    C01  799   7.670   2.444   4.949
   43EMI    C04  800   7.804   2.591   4.843
   43EMI    C03  801   7.839   2.469   4.801
   43EMI    H07  802   7.594   2.401   5.012
   43EMI    H09  803   7.848   2.684   4.813
   43EMI    H08  804   7.915   2.444   4.731
   43EMI    C05  805   7.750   2.229   4.857
   43EMI    H0B  806   7.652   2.192   4.873
   43EMI    H0C  807   7.783   2.204   4.758
   43EMI    H0D  808   7.817   2.187   4.928
   43EMI    N00  809   7.750   2.376   4.871
   43EMI    C06  810   7.625   2.679   5.011
   43EMI    H0F  811   7.675   2.698   5.104
   43EMI    C0N  812   7.625   2.807   4.926
   43EMI    H0O  813   7.574   2.885   4.979
   43EMI    H0P  814   7.726   2.837   4.907
   43EMI    H0Q  815   7.575   2.788   4.833
   43EMI    N02  816   7.695   2.572   4.939
   43EMI    H0E  817   7.524   2.649   5.030
   44EMI    C01  818   2.008   7.486   3.740
   44EMI    C04  819   1.969   7.267   3.773
   44EMI    C03  820   1.850   7.325   3.754
   44EMI    H07  821   2.056   7.581   3.728
   44EMI    H09  822   1.987   7.163   3.792
   44EMI    H08  823   1.754   7.278   3.754
   44EMI    C05  824   1.778   7.572   3.707
   44EMI    H0B  825   1.821   7.649   3.647
   44EMI    H0C  826   1.694   7.529   3.656
   44EMI    H0D  827   1.746   7.614   3.800
   44EMI    N00  828   1.878   7.467   3.733
   44EMI    C06  829   2.214   7.356   3.778
   44EMI    H0F  830   2.241   7.368   3.881
   44EMI    C0N  831   2.254   7.215   3.731
   44EMI    H0O  832   2.360   7.202   3.741
   44EMI    H0P  833   2.203   7.142   3.790
   44EMI    H0Q  834   2.227   7.203   3.628
   44EMI    N02  835   2.069   7.373   3.763
   44EMI    H0E  836   2.265   7.429   3.719
   45EMI    C01  837   1.193   5.179   3.783
   45EMI    C04  838   1.407   5.112   3.813
   45EMI    C03  839   1.335   5.003   3.785
   45EMI    H07  840   1.105   5.239   3.775
   45EMI    H09  841   1.512   5.117   3.832
   45EMI    H08  842   1.370   4.902   3.779
   45EMI    C05  843   1.081   4.964   3.735
   45EMI    H0B  844   1.010   5.020   3.678
   45EMI    H0C  845   1.114   4.880   3.678
   45EMI    H0D  846   1.036   4.931   3.826
   45EMI    N00  847   1.197   5.050   3.767
   45EMI    C06  848   1.347   5.366   3.835
   45EMI    H0F  849   1.338   5.387   3.940
   45EMI    C0N  850   1.492   5.392   3.790
   45EMI    H0O  851   1.517   5.494   3.808
   45EMI    H0P  852   1.558   5.329   3.845
   45EMI    H0Q  853   1.501   5.370   3.686
   45EMI    N02  854   1.313   5.225   3.811
   45EMI    H0E  855   1.281   5.429   3.780
   46EMI    C01  856   5.011   6.689   0.613
   46EMI    C04  857   4.797   6.747   0.571
   46EMI    C03  858   4.814   6.623   0.524
   46EMI    H07  859   5.113   6.691   0.645
   46EMI    H09  860   4.707   6.806   0.567
   46EMI    H08  861   4.741   6.561   0.476
   46EMI    C05  862   5.018   6.460   0.520
   46EMI    H0B  863   5.095   6.439   0.592
   46EMI    H0C  864   4.945   6.382   0.521
   46EMI    H0D  865   5.062   6.466   0.422
   46EMI    N00  866   4.954   6.588   0.553
   46EMI    C06  867   4.955   6.917   0.690
   46EMI    H0F  868   4.990   6.986   0.616
   46EMI    C0N  869   4.827   6.972   0.755
   46EMI    H0O  870   4.849   7.067   0.801
   46EMI    H0P  871   4.752   6.985   0.680
   46EMI    H0Q  872   4.792   6.904   0.830
   46EMI    N02  873   4.926   6.787   0.627
   46EMI    H0E  874   5.031   6.904   0.765
   47EMI    C01  875   1.140   1.005   4.160
   47EMI    C04  876   1.130   0.781   4.189
   47EMI    C03  877   1.259   0.813   4.177
   47EMI    H07  878   1.114   1.108   4.149
   47EMI    H09  879   1.089   0.683   4.203
   47EMI    H08  880   1.342   0.747   4.180
   47EMI    C05  881   1.384   1.039   4.141
   47EMI    H0B  882   1.368   1.137   4.180
   47EMI    H0C  883   1.466   0.993   4.192
   47EMI    H0D  884   1.407   1.047   4.037
   47EMI    N00  885   1.263   0.959   4.158
   47EMI    C06  886   0.909   0.921   4.185
   47EMI    H0F  887   0.867   0.912   4.087
   47EMI    C0N  888   0.851   0.811   4.276
   47EMI    H0O  889   0.745   0.821   4.281
   47EMI    H0P  890   0.876   0.715   4.235
   47EMI    H0Q  891   0.893   0.820   4.374
   47EMI    N02  892   1.055   0.907   4.178
   47EMI    H0E  893   0.885   1.017   4.226
   48EMI    C01  894   1.176   7.616   7.733
   48EMI    C04  895   0.983   7.515   7.794
   48EMI    C03  896   1.074   7.419   7.774
   48EMI    H07  897   1.249   7.690   7.708
   48EMI    H09  898   0.882   7.502   7.824
   48EMI    H08  899   1.059   7.313   7.784
   48EMI    C05  900   1.325   7.421   7.701
   48EMI    H0B  901   1.406   7.486   7.726
   48EMI    H0C  902   1.333   7.330   7.756
   48EMI    H0D  903   1.328   7.400   7.596
   48EMI    N00  904   1.197   7.487   7.734
   48EMI    C06  905   0.992   7.775   7.777
   48EMI    H0F  906   0.949   7.802   7.683
   48EMI    C0N  907   0.882   7.774   7.885
   48EMI    H0O  908   0.838   7.872   7.892
   48EMI    H0P  909   0.806   7.703   7.858
   48EMI    H0Q  910   0.924   7.747   7.979
   48EMI    N02  911   1.052   7.642   7.767
   48EMI    H0E  912   1.067   7.846   7.804
   49EMI    C01  913   1.859   1.202   6.972
   49EMI    C04  914   1.937   1.067   7.136
   49EMI    C03  915   2.030   1.160   7.114
   49EMI    H07  916   1.798   1.245   6.896
   49EMI    H09  917   1.941   0.987   7.207
   49EMI    H08  918   2.124   1.171   7.164
   49EMI    C05  919   2.045   1.363   6.950
   49EMI    H0B  920   1.973   1.434   6.917
   49EMI    H0C  921   2.108   1.408   7.024
   49EMI    H0D  922   2.105   1.332   6.867
   49EMI    N00  923   1.977   1.246   7.007
   49EMI    C06  924   1.703   1.020   7.030
   49EMI    H0F  925   1.716   0.941   6.958
   49EMI    C0N  926   1.667   0.958   7.167
   49EMI    H0O  927   1.576   0.902   7.158
   49EMI    H0P  928   1.746   0.893   7.198
   49EMI    H0Q  929   1.654   1.036   7.239
   49EMI    N02  930   1.828   1.096   7.042
   49EMI    H0E  931   1.624   1.085   6.999
   50EMI    C01  932   3.948   2.288   6.796
   50EMI    C04  933   4.129   2.153   6.811
   50EMI    C03  934   4.170   2.278   6.835
   50EMI    H07  935   3.849   2.324   6.782
   50EMI    H09  936   4.188   2.064   6.810
   50EMI    H08  937   4.270   2.309   6.858
   50EMI    C05  938   4.049   2.509   6.844
   50EMI    H0B  939   3.953   2.538   6.882
   50EMI    H0C  940   4.125   2.537   6.914
   50EMI    H0D  941   4.066   2.557   6.750
   50EMI    N00  942   4.052   2.363   6.825
   50EMI    C06  943   3.895   2.050   6.754
   50EMI    H0F  944   3.892   2.036   6.648
   50EMI    C0N  945   3.949   1.922   6.821
   50EMI    H0O  946   3.884   1.840   6.798
   50EMI    H0P  947   4.047   1.901   6.784
   50EMI    H0Q  948   3.952   1.936   6.927
   50EMI    N02  949   3.985   2.163   6.786
   50EMI    H0E  950   3.797   2.071   6.790
   51EMI    C01  951   7.823   6.770   0.368
   51EMI    C04  952   7.665   6.641   0.271
   51EMI    C03  953   7.615   6.764   0.280
   51EMI    H07  954   7.913   6.803   0.414
   51EMI    H09  955   7.617   6.554   0.229
   51EMI    H08  956   7.518   6.797   0.249
   51EMI    C05  957   7.708   6.989   0.375
   51EMI    H0B  958   7.805   7.033   0.370
   51EMI    H0C  959   7.644   7.036   0.304
   51EMI    H0D  960   7.668   7.001   0.474
   51EMI    N00  961   7.719   6.845   0.344
   51EMI    C06  962   7.894   6.535   0.339
   51EMI    H0F  963   7.879   6.485   0.432
   51EMI    C0N  964   7.869   6.436   0.223
   51EMI    H0O  965   7.938   6.354   0.231
   51EMI    H0P  966   7.769   6.399   0.229
   51EMI    H0Q  967   7.884   6.486   0.130
   51EMI    N02  968   7.800   6.647   0.328
   51EMI    H0E  969   7.994   6.572   0.333
   52EMI    C01  970   3.662   1.135   6.069
   52EMI    C04  971   3.777   0.947   6.117
   52EMI    C03  972   3.849   1.050   6.162
   52EMI    H07  973   3.587   1.203   6.033
   52EMI    H09  974   3.802   0.843   6.123
   52EMI    H08  975   3.944   1.045   6.211
   52EMI    C05  976   3.813   1.308   6.159
   52EMI    H0B  977   3.726   1.368   6.175
   52EMI    H0C  978   3.873   1.309   6.248
   52EMI    H0D  979   3.870   1.347   6.078
   52EMI    N00  980   3.772   1.170   6.129
   52EMI    C06  981   3.547   0.929   5.994
   52EMI    H0F  982   3.567   0.916   5.890
   52EMI    C0N  983   3.535   0.791   6.061
   52EMI    H0O  984   3.455   0.736   6.016
   52EMI    H0P  985   3.627   0.737   6.049
   52EMI    H0Q  986   3.514   0.803   6.165
   52EMI    N02  987   3.656   1.005   6.057
   52EMI    H0E  988   3.455   0.982   6.006
   53EMI    C01  989   2.619   0.502   0.614
   53EMI    C04  990   2.823   0.404   0.612
   53EMI    C03  991   2.737   0.319   0.554
   53EMI    H07  992   2.540   0.572   0.629
   53EMI    H09  993   2.927   0.389   0.628
   53EMI    H08  994   2.759   0.222   0.514
   53EMI    C05  995   2.481   0.329   0.504
   53EMI    H0B  996   2.418   0.409   0.471
   53EMI    H0C  997   2.503   0.264   0.422
   53EMI    H0D  998   2.431   0.274   0.581
   53EMI    N00  999   2.606   0.385   0.557
   53EMI    C06 1000   2.796   0.642   0.717
   53EMI    H0F 1001   2.789   0.629   0.823
   53EMI    C0N 1002   2.943   0.663   0.676
   53EMI    H0O 1003   2.981   0.750   0.725
   53EMI    H0P 1004   3.001   0.578   0.706
   53EMI    H0Q 1005   2.950   0.675   0.570
   53EMI    N02 1006   2.744   0.521   0.650
   53EMI    H0E 1007   2.738   0.727   0.687
   54EMI    C01 1008   3.061   4.177   3.811
   54EMI    C04 1009   3.087   4.399   3.841
   54EMI    C03 1010   2.957   4.372   3.859
   54EMI    H07 1011   3.080   4.074   3.792
   54EMI    H09 1012   3.134   4.495   3.848
   54EMI    H08 1013   2.880   4.441   3.883
   54EMI    C05 1014   2.818   4.151   3.849
   54EMI    H0B 1015   2.840   4.052   3.882
   54EMI    H0C 1016   2.753   4.199   3.920
   54EMI    H0D 1017   2.771   4.148   3.753
   54EMI    N00 1018   2.944   4.227   3.839
   54EMI    C06 1019   3.295   4.253   3.783
   54EMI    H0F 1020   3.312   4.263   3.677
   54EMI    C0N 1021   3.376   4.358   3.859
   54EMI    H0O 1022   3.481   4.344   3.839
   54EMI    H0P 1023   3.347   4.456   3.828
   54EMI    H0Q 1024   3.359   4.348   3.964
   54EMI    N02 1025   3.152   4.272   3.810
   54EMI    H0E 1026   3.324   4.155   3.814
   55EMI    C01 1027   0.845   1.748   0.373
   55EMI    C04 1028   0.993   1.883   0.269
   55EMI    C03 1029   0.923   1.959   0.353
   55EMI    H07 1030   0.788   1.662   0.403
   55EMI    H09 1031   1.072   1.914   0.204
   55EMI    H08 1032   0.934   2.064   0.369
   55EMI    C05 1033   0.729   1.909   0.520
   55EMI    H0B 1034   0.710   1.827   0.586
   55EMI    H0C 1035   0.766   1.992   0.576
   55EMI    H0D 1036   0.637   1.936   0.472
   55EMI    N00 1037   0.827   1.869   0.419
   55EMI    C06 1038   0.988   1.628   0.211
   55EMI    H0F 1039   0.932   1.618   0.120
   55EMI    C0N 1040   1.137   1.645   0.177
   55EMI    H0O 1041   1.171   1.558   0.124
   55EMI    H0P 1042   1.151   1.732   0.116
   55EMI    H0Q 1043   1.193   1.655   0.268
   55EMI    N02 1044   0.940   1.747   0.284
   55EMI    H0E 1045   0.974   1.541   0.271
   56EMI    C01 1046   2.590   6.703   1.488
   56EMI    C04 1047   2.417   6.766   1.357
   56EMI    C03 1048   2.365   6.707   1.465
   56EMI    H07 1049   2.688   6.687   1.526
   56EMI    H09 1050   2.363   6.808   1.274
   56EMI    H08 1051   2.261   6.692   1.486
   56EMI    C05 1052   2.471   6.598   1.677
   56EMI    H0B 1053   2.554   6.627   1.738
   56EMI    H0C 1054   2.380   6.626   1.727
   56EMI    H0D 1055   2.472   6.493   1.661
   56EMI    N00 1056   2.479   6.667   1.548
   56EMI    C06 1057   2.661   6.816   1.280
   56EMI    H0F 1058   2.689   6.740   1.209
   56EMI    C0N 1059   2.601   6.936   1.204
   56EMI    H0O 1060   2.673   6.975   1.135
   56EMI    H0P 1061   2.514   6.904   1.150
   56EMI    H0Q 1062   2.574   7.012   1.274
   56EMI    N02 1063   2.562   6.762   1.374
   56EMI    H0E 1064   2.748   6.848   1.333
   57EMI    C01 1065   4.685   0.729   5.207
   57EMI    C04 1066   4.812   0.561   5.125
   57EMI    C03 1067   4.686   0.517   5.131
   57EMI    H07 1068   4.653   0.823   5.246
   57EMI    H09 1069   4.898   0.508   5.091
   57EMI    H08 1070   4.651   0.420   5.102
   57EMI    C05 1071   4.461   0.624   5.208
   57EMI    H0B 1072   4.421   0.723   5.196
   57EMI    H0C 1073   4.415   0.558   5.138
   57EMI    H0D 1074   4.442   0.590   5.308
   57EMI    N00 1075   4.606   0.627   5.184
   57EMI    C06 1076   4.924   0.789   5.187
   57EMI    H0F 1077   4.969   0.777   5.284
   57EMI    C0N 1078   5.028   0.754   5.079
   57EMI    H0O 1079   5.112   0.819   5.087
   57EMI    H0P 1080   5.060   0.653   5.091
   57EMI    H0Q 1081   4.984   0.766   4.982
   57EMI    N02 1082   4.808   0.699   5.175
   57EMI    H0E 1083   4.892   0.890   5.175
   58EMI    C01 1084   6.244   7.216   5.470
   58EMI    C04 1085   6.145   7.087   5.627
   58EMI    C03 1086   6.230   7.168   5.691
   58EMI    H07 1087   6.272   7.259   5.377
   58EMI    H09 1088   6.081   7.013   5.671
   58EMI    H08 1089   6.248   7.173   5.796
   58EMI    C05 1090   6.393   7.355   5.609
   58EMI    H0B 1091   6.384   7.430   5.534
   58EMI    H0C 1092   6.378   7.399   5.706
   58EMI    H0D 1093   6.491   7.312   5.605
   58EMI    N00 1094   6.292   7.250   5.587
   58EMI    C06 1095   6.081   7.055   5.376
   58EMI    H0F 1096   6.136   6.971   5.340
   58EMI    C0N 1097   5.944   7.008   5.429
   58EMI    H0O 1098   5.889   6.961   5.350
   58EMI    H0P 1099   5.959   6.938   5.509
   58EMI    H0Q 1100   5.889   7.092   5.466
   58EMI    N02 1101   6.156   7.120   5.485
   58EMI    H0E 1102   6.066   7.125   5.297
   59EMI    C01 1103   4.995   5.749   5.380
   59EMI    C04 1104   5.000   5.599   5.212
   59EMI    C03 1105   5.115   5.667   5.208
   59EMI    H07 1106   4.964   5.807   5.465
   59EMI    H09 1107   4.970   5.520   5.147
   59EMI    H08 1108   5.196   5.653   5.139
   59EMI    C05 1109   5.214   5.861   5.353
   59EMI    H0B 1110   5.211   5.880   5.458
   59EMI    H0C 1111   5.309   5.821   5.326
   59EMI    H0D 1112   5.197   5.952   5.299
   59EMI    N00 1113   5.109   5.763   5.318
   59EMI    C06 1114   4.791   5.610   5.368
   59EMI    H0F 1115   4.716   5.667   5.316
   59EMI    C0N 1116   4.773   5.460   5.335
   59EMI    H0O 1117   4.676   5.428   5.367
   59EMI    H0P 1118   4.783   5.446   5.230
   59EMI    H0Q 1119   4.848   5.404   5.387
   59EMI    N02 1120   4.925   5.654   5.325
   59EMI    H0E 1121   4.781   5.625   5.473
   60EMI    C01 1122   6.446   2.107   3.472
   60EMI    C04 1123   6.371   2.198   3.664
   60EMI    C03 1124   6.483   2.131   3.693
   60EMI    H07 1125   6.456   2.078   3.369
   60EMI    H09 1126   6.309   2.253   3.732
   60EMI    H08 1127   6.529   2.121   3.789
   60EMI    C05 1128   6.649   1.990   3.550
   60EMI    H0B 1129   6.689   2.004   3.451
   60EMI    H0C 1130   6.723   2.018   3.622
   60EMI    H0D 1131   6.624   1.887   3.563
   60EMI    N00 1132   6.529   2.073   3.567
   60EMI    C06 1133   6.238   2.237   3.442
   60EMI    H0F 1134   6.157   2.168   3.441
   60EMI    C0N 1135   6.193   2.370   3.507
   60EMI    H0O 1136   6.112   2.411   3.451
   60EMI    H0P 1137   6.161   2.351   3.607
   60EMI    H0Q 1138   6.275   2.439   3.508
   60EMI    N02 1139   6.350   2.181   3.520
   60EMI    H0E 1140   6.271   2.256   3.342
   61EMI    C01 1141   4.329   1.334   0.339
   61EMI    C04 1142   4.496   1.192   0.394
   61EMI    C03 1143   4.535   1.258   0.284
   61EMI    H07 1144   4.237   1.388   0.339
   61EMI    H09 1145   4.551   1.117   0.447
   61EMI    H08 1146   4.627   1.246   0.231
   61EMI    C05 1147   4.422   1.442   0.137
   61EMI    H0B 1148   4.363   1.528   0.163
   61EMI    H0C 1149   4.522   1.473   0.115
   61EMI    H0D 1150   4.380   1.393   0.052
   61EMI    N00 1151   4.425   1.349   0.251
   61EMI    C06 1152   4.281   1.200   0.541
   61EMI    H0F 1153   4.219   1.117   0.511
   61EMI    C0N 1154   4.372   1.155   0.657
   61EMI    H0O 1155   4.312   1.123   0.739
   61EMI    H0P 1156   4.434   1.074   0.624
   61EMI    H0Q 1157   4.434   1.237   0.687
   61EMI    N02 1158   4.363   1.243   0.427
   61EMI    H0E 1159   4.219   1.281   0.574
   62EMI    C01 1160   1.344   7.457   4.005
   62EMI    C04 1161   1.129   7.510   3.961
   62EMI    C03 1162   1.204   7.567   3.867
   62EMI    H07 1163   1.431   7.416   4.050
   62EMI    H09 1164   1.022   7.515   3.971
   62EMI    H08 1165   1.169   7.628   3.785
   62EMI    C05 1166   1.460   7.572   3.820
   62EMI    H0B 1167   1.536   7.497   3.828
   62EMI    H0C 1168   1.433   7.585   3.717
   62EMI    H0D 1169   1.498   7.665   3.859
   62EMI    N00 1170   1.342   7.531   3.897
   62EMI    C06 1171   1.185   7.361   4.168
   62EMI    H0F 1172   1.184   7.424   4.254
   62EMI    C0N 1173   1.044   7.301   4.148
   62EMI    H0O 1174   1.017   7.244   4.235
   62EMI    H0P 1175   0.973   7.380   4.134
   62EMI    H0Q 1176   1.044   7.237   4.062
   62EMI    N02 1177   1.222   7.439   4.049
   62EMI    H0E 1178   1.255   7.282   4.182
   63EMI    C01 1179   2.381   0.583   7.435
   63EMI    C04 1180   2.180   0.663   7.370
   63EMI    C03 1181   2.260   0.768   7.390
   63EMI    H07 1182   2.461   0.517   7.463
   63EMI    H09 1183   2.078   0.664   7.338
   63EMI    H08 1184   2.235   0.871   7.378
   63EMI    C05 1185   2.509   0.793   7.467
   63EMI    H0B 1186   2.596   0.736   7.443
   63EMI    H0C 1187   2.508   0.884   7.410
   63EMI    H0D 1188   2.508   0.815   7.571
   63EMI    N00 1189   2.389   0.714   7.433
   63EMI    C06 1190   2.216   0.405   7.391
   63EMI    H0F 1191   2.175   0.375   7.485
   63EMI    C0N 1192   2.108   0.393   7.282
   63EMI    H0O 1193   2.075   0.291   7.275
   63EMI    H0P 1194   2.025   0.456   7.306
   63EMI    H0Q 1195   2.149   0.423   7.188
   63EMI    N02 1196   2.262   0.544   7.400
   63EMI    H0E 1197   2.299   0.342   7.366
   64EMI    C01 1198   5.864   2.756   2.337
   64EMI    C04 1199   5.917   2.909   2.494
   64EMI    C03 1200   5.822   2.831   2.545
   64EMI    H07 1201   5.861   2.699   2.246
   64EMI    H09 1202   5.966   2.991   2.541
   64EMI    H08 1203   5.778   2.839   2.643
   64EMI    C05 1204   5.688   2.627   2.453
   64EMI    H0B 1205   5.717   2.543   2.393
   64EMI    H0C 1206   5.680   2.596   2.555
   64EMI    H0D 1207   5.593   2.663   2.419
   64EMI    N00 1208   5.788   2.733   2.442
   64EMI    C06 1209   6.041   2.912   2.263
   64EMI    H0F 1210   5.994   2.987   2.204
   64EMI    C0N 1211   6.159   2.973   2.341
   64EMI    H0O 1212   6.230   3.013   2.271
   64EMI    H0P 1213   6.123   3.052   2.404
   64EMI    H0Q 1214   6.205   2.897   2.401
   64EMI    N02 1215   5.942   2.858   2.359
   64EMI    H0E 1216   6.076   2.833   2.200
   65EMI    C01 1217   3.479   6.244   4.355
   65EMI    C04 1218   3.331   6.215   4.523
   65EMI    C03 1219   3.398   6.328   4.548
   65EMI    H07 1220   3.536   6.231   4.265
   65EMI    H09 1221   3.254   6.171   4.582
   65EMI    H08 1222   3.384   6.393   4.631
   65EMI    C05 1223   3.587   6.456   4.422
   65EMI    H0B 1224   3.605   6.474   4.318
   65EMI    H0C 1225   3.547   6.544   4.467
   65EMI    H0D 1226   3.680   6.431   4.470
   65EMI    N00 1227   3.493   6.345   4.438
   65EMI    C06 1228   3.344   6.039   4.330
   65EMI    H0F 1229   3.403   5.957   4.366
   65EMI    C0N 1230   3.196   6.012   4.361
   65EMI    H0O 1231   3.165   5.922   4.312
   65EMI    H0P 1232   3.182   6.002   4.466
   65EMI    H0Q 1233   3.137   6.094   4.325
   65EMI    N02 1234   3.387   6.162   4.397
   65EMI    H0E 1235   3.358   6.049   4.224
   66EMI    C01 1236   0.295   5.233   4.933
   66EMI    C04 1237   0.111   5.128   5.009
   66EMI    C03 1238   0.171   5.045   4.923
   66EMI    H07 1239   0.372   5.306   4.917
   66EMI    H09 1240   0.021   5.110   5.064
   66EMI    H08 1241   0.138   4.948   4.894
   66EMI    C05 1242   0.387   5.064   4.778
   66EMI    H0B 1243   0.484   5.106   4.798
   66EMI    H0C 1244   0.392   4.958   4.786
   66EMI    H0D 1245   0.357   5.092   4.679
   66EMI    N00 1246   0.290   5.116   4.875
   66EMI    C06 1247   0.167   5.368   5.096
   66EMI    H0F 1248   0.107   5.437   5.041
   66EMI    C0N 1249   0.093   5.326   5.224
   66EMI    H0O 1250   0.073   5.413   5.284
   66EMI    H0P 1251   0.000   5.279   5.198
   66EMI    H0Q 1252   0.153   5.257   5.280
   66EMI    N02 1253   0.194   5.249   5.014
   66EMI    H0E 1254   0.260   5.415   5.122
   67EMI    C01 1255   3.649   0.874   2.628
   67EMI    C04 1256   3.600   0.704   2.488
   67EMI    C03 1257   3.603   0.816   2.415
   67EMI    H07 1258   3.673   0.930   2.716
   67EMI    H09 1259   3.580   0.605   2.453
   67EMI    H08 1260   3.585   0.825   2.310
   67EMI    C05 1261   3.648   1.066   2.473
   67EMI    H0B 1262   3.719   1.113   2.539
   67EMI    H0C 1263   3.683   1.075   2.373
   67EMI    H0D 1264   3.553   1.115   2.483
   67EMI    N00 1265   3.635   0.924   2.509
   67EMI    C06 1266   3.639   0.654   2.742
   67EMI    H0F 1267   3.542   0.646   2.788
   67EMI    C0N 1268   3.685   0.515   2.695
   67EMI    H0O 1269   3.691   0.450   2.780
   67EMI    H0P 1270   3.615   0.476   2.625
   67EMI    H0Q 1271   3.781   0.523   2.649
   67EMI    N02 1272   3.630   0.744   2.626
   67EMI    H0E 1273   3.709   0.694   2.812
   68EMI    C01 1274   1.226   3.635   2.596
   68EMI    C04 1275   1.163   3.430   2.668
   68EMI    C03 1276   1.051   3.501   2.645
   68EMI    H07 1277   1.286   3.719   2.567
   68EMI    H09 1278   1.169   3.329   2.703
   68EMI    H08 1279   0.950   3.467   2.658
   68EMI    C05 1280   1.007   3.744   2.562
   68EMI    H0B 1281   1.055   3.804   2.487
   68EMI    H0C 1282   0.915   3.705   2.523
   68EMI    H0D 1283   0.987   3.804   2.648
   68EMI    N00 1284   1.096   3.632   2.599
   68EMI    C06 1285   1.417   3.485   2.646
   68EMI    H0F 1286   1.453   3.510   2.743
   68EMI    C0N 1287   1.435   3.334   2.621
   68EMI    H0O 1288   1.539   3.309   2.628
   68EMI    H0P 1289   1.380   3.279   2.694
   68EMI    H0Q 1290   1.399   3.309   2.523
   68EMI    N02 1291   1.274   3.519   2.636
   68EMI    H0E 1292   1.472   3.540   2.573
   69EMI    C01 1293   4.006   2.850   2.453
   69EMI    C04 1294   4.197   2.791   2.558
   69EMI    C03 1295   4.230   2.827   2.433
   69EMI    H07 1296   3.903   2.870   2.432
   69EMI    H09 1297   4.263   2.758   2.635
   69EMI    H08 1298   4.328   2.829   2.390
   69EMI    C05 1299   4.091   2.912   2.229
   69EMI    H0B 1300   4.007   2.978   2.222
   69EMI    H0C 1301   4.180   2.963   2.200
   69EMI    H0D 1302   4.075   2.828   2.164
   69EMI    N00 1303   4.104   2.865   2.368
   69EMI    C06 1304   3.970   2.779   2.687
   69EMI    H0F 1305   3.938   2.677   2.685
   69EMI    C0N 1306   4.055   2.804   2.813
   69EMI    H0O 1307   3.995   2.783   2.900
   69EMI    H0P 1308   4.140   2.739   2.812
   69EMI    H0Q 1309   4.087   2.906   2.815
   69EMI    N02 1310   4.052   2.807   2.567
   69EMI    H0E 1311   3.885   2.843   2.688
   70EMI    C01 1312   3.325   7.109   2.430
   70EMI    C04 1313   3.194   6.927   2.455
   70EMI    C03 1314   3.243   6.924   2.330
   70EMI    H07 1315   3.378   7.200   2.448
   70EMI    H09 1316   3.129   6.856   2.500
   70EMI    H08 1317   3.224   6.850   2.256
   70EMI    C05 1318   3.402   7.082   2.196
   70EMI    H0B 1319   3.490   7.136   2.225
   70EMI    H0C 1320   3.429   6.994   2.142
   70EMI    H0D 1321   3.340   7.144   2.135
   70EMI    N00 1322   3.327   7.043   2.317
   70EMI    C06 1323   3.224   7.092   2.655
   70EMI    H0F 1324   3.138   7.156   2.656
   70EMI    C0N 1325   3.198   6.970   2.745
   70EMI    H0O 1326   3.180   7.003   2.845
   70EMI    H0P 1327   3.113   6.916   2.708
   70EMI    H0Q 1328   3.284   6.906   2.743
   70EMI    N02 1329   3.249   7.048   2.517
   70EMI    H0E 1330   3.309   7.146   2.691
   71EMI    C01 1331   0.281   4.576   7.032
   71EMI    C04 1332   0.457   4.463   6.948
   71EMI    C03 1333   0.347   4.391   6.922
   71EMI    H07 1334   0.221   4.650   7.081
   71EMI    H09 1335   0.558   4.438   6.923
   71EMI    H08 1336   0.342   4.297   6.870
   71EMI    C05 1337   0.093   4.427   6.972
   71EMI    H0B 1338   0.032   4.514   6.970
   71EMI    H0C 1339   0.076   4.369   6.884
   71EMI    H0D 1340   0.070   4.368   7.058
   71EMI    N00 1341   0.235   4.467   6.977
   71EMI    C06 1342   0.497   4.690   7.070
   71EMI    H0F 1343   0.528   4.668   7.170
   71EMI    C0N 1344   0.621   4.703   6.979
   71EMI    H0O 1345   0.683   4.782   7.015
   71EMI    H0P 1346   0.675   4.611   6.979
   71EMI    H0Q 1347   0.589   4.726   6.879
   71EMI    N02 1348   0.411   4.582   7.020
   71EMI    H0E 1349   0.442   4.782   7.069
   72EMI    C01 1350   5.815   1.782   0.827
   72EMI    C04 1351   5.596   1.777   0.879
   72EMI    C03 1352   5.658   1.691   0.961
   72EMI    H07 1353   5.909   1.806   0.781
   72EMI    H09 1354   5.491   1.799   0.876
   72EMI    H08 1355   5.613   1.631   1.037
   72EMI    C05 1356   5.908   1.619   0.989
   72EMI    H0B 1357   5.999   1.675   0.984
   72EMI    H0C 1358   5.882   1.601   1.091
   72EMI    H0D 1359   5.920   1.526   0.937
   72EMI    N00 1360   5.800   1.697   0.925
   72EMI    C06 1361   5.679   1.933   0.687
   72EMI    H0F 1362   5.659   1.883   0.595
   72EMI    C0N 1363   5.558   2.022   0.723
   72EMI    H0O 1364   5.543   2.094   0.646
   72EMI    H0P 1365   5.471   1.961   0.733
   72EMI    H0Q 1366   5.577   2.072   0.816
   72EMI    N02 1367   5.700   1.834   0.793
   72EMI    H0E 1368   5.766   1.994   0.677
   73EMI    C01 1369   4.483   6.618   1.042
   73EMI    C04 1370   4.656   6.691   0.916
   73EMI    C03 1371   4.627   6.788   1.005
   73EMI    H07 1372   4.404   6.558   1.082
   73EMI    H09 1373   4.732   6.693   0.842
   73EMI    H08 1374   4.676   6.882   1.015
   73EMI    C05 1375   4.449   6.810   1.195
   73EMI    H0B 1376   4.411   6.739   1.266
   73EMI    H0C 1377   4.520   6.874   1.242
   73EMI    H0D 1378   4.368   6.868   1.156
   73EMI    N00 1379   4.515   6.737   1.085
   73EMI    C06 1380   4.554   6.455   0.870
   73EMI    H0F 1381   4.487   6.465   0.787
   73EMI    C0N 1382   4.694   6.418   0.819
   73EMI    H0O 1383   4.689   6.325   0.766
   73EMI    H0P 1384   4.730   6.494   0.754
   73EMI    H0Q 1385   4.761   6.408   0.903
   73EMI    N02 1386   4.560   6.583   0.943
   73EMI    H0E 1387   4.518   6.379   0.935
   74EMI    C01 1388   3.026   5.378   4.016
   74EMI    C04 1389   2.819   5.403   3.930
   74EMI    C03 1390   2.808   5.323   4.037
   74EMI    H07 1391   3.131   5.385   4.031
   74EMI    H09 1392   2.740   5.436   3.866
   74EMI    H08 1393   2.718   5.279   4.075
   74EMI    C05 1394   2.981   5.229   4.208
   74EMI    H0B 1395   3.066   5.273   4.255
   74EMI    H0C 1396   2.899   5.227   4.277
   74EMI    H0D 1397   3.004   5.129   4.178
   74EMI    N00 1398   2.943   5.309   4.090
   74EMI    C06 1399   3.021   5.523   3.816
   74EMI    H0F 1400   3.050   5.463   3.731
   74EMI    C0N 1401   2.918   5.628   3.770
   74EMI    H0O 1402   2.961   5.691   3.695
   74EMI    H0P 1403   2.832   5.579   3.730
   74EMI    H0Q 1404   2.889   5.688   3.854
   74EMI    N02 1405   2.961   5.437   3.919
   74EMI    H0E 1406   3.107   5.572   3.856
   75EMI    C01 1407   2.650   7.480   5.207
   75EMI    C04 1408   2.710   7.295   5.321
   75EMI    C03 1409   2.745   7.401   5.396
   75EMI    H07 1410   2.612   7.546   5.132
   75EMI    H09 1411   2.724   7.192   5.346
   75EMI    H08 1412   2.792   7.399   5.492
   75EMI    C05 1413   2.723   7.658   5.362
   75EMI    H0B 1414   2.646   7.719   5.320
   75EMI    H0C 1415   2.720   7.664   5.468
   75EMI    H0D 1416   2.818   7.694   5.327
   75EMI    N00 1417   2.705   7.519   5.319
   75EMI    C06 1418   2.595   7.271   5.088
   75EMI    H0F 1419   2.672   7.253   5.016
   75EMI    C0N 1420   2.542   7.136   5.141
   75EMI    H0O 1421   2.503   7.078   5.060
   75EMI    H0P 1422   2.623   7.082   5.188
   75EMI    H0Q 1423   2.465   7.153   5.213
   75EMI    N02 1424   2.649   7.350   5.200
   75EMI    H0E 1425   2.515   7.324   5.042
   76EMI    C01 1426   3.714   3.613   7.370
   76EMI    C04 1427   3.562   3.778   7.347
   76EMI    C03 1428   3.682   3.832   7.324
   76EMI    H07 1429   3.760   3.518   7.387
   76EMI    H09 1430   3.467   3.828   7.344
   76EMI    H08 1431   3.704   3.934   7.300
   76EMI    C05 1432   3.924   3.735   7.325
   76EMI    H0B 1433   3.965   3.642   7.290
   76EMI    H0C 1434   3.947   3.812   7.254
   76EMI    H0D 1435   3.969   3.759   7.419
   76EMI    N00 1436   3.779   3.723   7.340
   76EMI    C06 1437   3.482   3.537   7.407
   76EMI    H0F 1438   3.465   3.535   7.513
   76EMI    C0N 1439   3.351   3.575   7.335
   76EMI    H0O 1440   3.276   3.503   7.358
   76EMI    H0P 1441   3.319   3.672   7.369
   76EMI    H0Q 1442   3.368   3.577   7.230
   76EMI    N02 1443   3.586   3.637   7.376
   76EMI    H0E 1444   3.514   3.441   7.374
   77EMI    C01 1445   6.850   6.326   7.491
   77EMI    C04 1446   6.989   6.179   7.390
   77EMI    C03 1447   6.890   6.205   7.304
   77EMI    H07 1448   6.805   6.392   7.562
   77EMI    H09 1449   7.072   6.114   7.375
   77EMI    H08 1450   6.878   6.165   7.206
   77EMI    C05 1451   6.678   6.358   7.316
   77EMI    H0B 1452   6.662   6.455   7.357
   77EMI    H0C 1453   6.687   6.365   7.210
   77EMI    H0D 1454   6.595   6.295   7.341
   77EMI    N00 1455   6.801   6.300   7.372
   77EMI    C06 1456   7.043   6.262   7.632
   77EMI    H0F 1457   7.010   6.186   7.700
   77EMI    C0N 1458   7.190   6.237   7.595
   77EMI    H0O 1459   7.250   6.240   7.684
   77EMI    H0P 1460   7.200   6.141   7.548
   77EMI    H0Q 1461   7.223   6.313   7.527
   77EMI    N02 1462   6.960   6.259   7.510
   77EMI    H0E 1463   7.033   6.358   7.678
   78EMI    C01 1464   1.855   7.338   1.009
   78EMI    C04 1465   1.664   7.275   1.110
   78EMI    C03 1466   1.738   7.165   1.093
   78EMI    H07 1467   1.932   7.397   0.963
   78EMI    H09 1468   1.567   7.280   1.155
   78EMI    H08 1469   1.713   7.065   1.122
   78EMI    C05 1470   1.974   7.122   0.989
   78EMI    H0B 1471   2.065   7.178   0.993
   78EMI    H0C 1472   1.979   7.039   1.056
   78EMI    H0D 1473   1.958   7.086   0.889
   78EMI    N00 1474   1.861   7.209   1.028
   78EMI    C06 1475   1.700   7.526   1.051
   78EMI    H0F 1476   1.647   7.545   0.960
   78EMI    C0N 1477   1.608   7.556   1.171
   78EMI    H0O 1478   1.578   7.658   1.168
   78EMI    H0P 1479   1.522   7.493   1.166
   78EMI    H0Q 1480   1.661   7.536   1.262
   78EMI    N02 1481   1.742   7.385   1.055
   78EMI    H0E 1482   1.786   7.589   1.056
   79EMI    C01 1483   2.393   2.361   5.666
   79EMI    C04 1484   2.583   2.241   5.654
   79EMI    C03 1485   2.497   2.188   5.566
   79EMI    H07 1486   2.319   2.434   5.694
   79EMI    H09 1487   2.683   2.209   5.674
   79EMI    H08 1488   2.514   2.104   5.502
   79EMI    C05 1489   2.252   2.246   5.499
   79EMI    H0B 1490   2.202   2.339   5.485
   79EMI    H0C 1491   2.277   2.204   5.404
   79EMI    H0D 1492   2.188   2.179   5.552
   79EMI    N00 1493   2.375   2.268   5.577
   79EMI    C06 1494   2.568   2.442   5.820
   79EMI    H0F 1495   2.548   2.401   5.917
   79EMI    C0N 1496   2.721   2.453   5.801
   79EMI    H0O 1497   2.761   2.518   5.877
   79EMI    H0P 1498   2.765   2.356   5.810
   79EMI    H0Q 1499   2.742   2.494   5.705
   79EMI    N02 1500   2.513   2.353   5.717
   79EMI    H0E 1501   2.524   2.538   5.812
   80EMI    C01 1502   3.012   6.225   6.236
   80EMI    C04 1503   3.220   6.296   6.288
   80EMI    C03 1504   3.147   6.405   6.258
   80EMI    H07 1505   2.927   6.163   6.218
   80EMI    H09 1506   3.323   6.294   6.318
   80EMI    H08 1507   3.180   6.506   6.258
   80EMI    C05 1508   2.899   6.439   6.185
   80EMI    H0B 1509   2.808   6.392   6.216
   80EMI    H0C 1510   2.907   6.535   6.231
   80EMI    H0D 1511   2.899   6.450   6.079
   80EMI    N00 1512   3.013   6.355   6.225
   80EMI    C06 1513   3.166   6.041   6.296
   80EMI    H0F 1514   3.202   5.998   6.205
   80EMI    C0N 1515   3.276   6.033   6.404
   80EMI    H0O 1516   3.302   5.931   6.421
   80EMI    H0P 1517   3.362   6.087   6.371
   80EMI    H0Q 1518   3.240   6.076   6.495
   80EMI    N02 1519   3.130   6.182   6.273
   80EMI    H0E 1520   3.080   5.987   6.330
   81EMI    C01 1521   4.251   0.599   1.288
   81EMI    C04 1522   4.345   0.763   1.411
   81EMI    C03 1523   4.444   0.691   1.358
   81EMI    H07 1524   4.179   0.535   1.240
   81EMI    H09 1525   4.354   0.848   1.475
   81EMI    H08 1526   4.549   0.708   1.370
   81EMI    C05 1527   4.451   0.482   1.202
   81EMI    H0B 1528   4.391   0.454   1.118
   81EMI    H0C 1529   4.545   0.520   1.168
   81EMI    H0D 1530   4.467   0.396   1.264
   81EMI    N00 1531   4.380   0.586   1.279
   81EMI    C06 1532   4.085   0.746   1.397
   81EMI    H0F 1533   4.051   0.696   1.486
   81EMI    C0N 1534   4.085   0.898   1.420
   81EMI    H0O 1535   3.986   0.931   1.444
   81EMI    H0P 1536   4.151   0.922   1.501
   81EMI    H0Q 1537   4.118   0.947   1.331
   81EMI    N02 1538   4.220   0.701   1.364
   81EMI    H0E 1539   4.019   0.722   1.317
   82EMI    C01 1540   1.058   2.375   3.632
   82EMI    C04 1541   1.032   2.583   3.549
   82EMI    C03 1542   1.095   2.595   3.667
   82EMI    H07 1543   1.055   2.269   3.644
   82EMI    H09 1544   1.005   2.663   3.483
   82EMI    H08 1545   1.127   2.685   3.714
   82EMI    C05 1546   1.173   2.421   3.845
   82EMI    H0B 1547   1.217   2.324   3.837
   82EMI    H0C 1548   1.249   2.493   3.870
   82EMI    H0D 1549   1.099   2.420   3.923
   82EMI    N00 1550   1.110   2.458   3.718
   82EMI    C06 1551   0.944   2.380   3.413
   82EMI    H0F 1552   0.839   2.373   3.431
   82EMI    C0N 1553   0.969   2.467   3.288
   82EMI    H0O 1554   0.921   2.423   3.203
   82EMI    H0P 1555   0.929   2.565   3.305
   82EMI    H0Q 1556   1.074   2.474   3.270
   82EMI    N02 1557   1.010   2.440   3.529
   82EMI    H0E 1558   0.984   2.282   3.396
   83EMI    C01 1559   5.655   2.950   6.917
   83EMI    C04 1560   5.737   3.053   6.733
   83EMI    C03 1561   5.810   3.093   6.837
   83EMI    H07 1562   5.595   2.890   6.982
   83EMI    H09 1563   5.749   3.082   6.631
   83EMI    H08 1564   5.893   3.161   6.835
   83EMI    C05 1565   5.803   3.040   7.093
   83EMI    H0B 1566   5.785   2.949   7.146
   83EMI    H0C 1567   5.908   3.060   7.092
   83EMI    H0D 1568   5.751   3.120   7.141
   83EMI    N00 1569   5.755   3.026   6.955
   83EMI    C06 1570   5.534   2.890   6.709
   83EMI    H0F 1571   5.446   2.950   6.705
   83EMI    C0N 1572   5.586   2.865   6.567
   83EMI    H0O 1573   5.511   2.814   6.510
   83EMI    H0P 1574   5.609   2.958   6.520
   83EMI    H0Q 1575   5.675   2.805   6.571
   83EMI    N02 1576   5.637   2.960   6.787
   83EMI    H0E 1577   5.511   2.797   6.756
   84EMI    C01 1578   5.961   4.965   5.587
   84EMI    C04 1579   5.831   4.881   5.423
   84EMI    C03 1580   5.957   4.883   5.377
   84EMI    H07 1581   5.994   5.006   5.680
   84EMI    H09 1582   5.744   4.848   5.370
   84EMI    H08 1583   5.991   4.851   5.280
   84EMI    C05 1584   6.184   4.958   5.481
   84EMI    H0B 1585   6.225   4.948   5.579
   84EMI    H0C 1586   6.228   4.885   5.416
   84EMI    H0D 1587   6.205   5.056   5.444
   84EMI    N00 1588   6.038   4.937   5.486
   84EMI    C06 1589   5.722   4.952   5.649
   84EMI    H0F 1590   5.680   5.049   5.635
   84EMI    C0N 1591   5.616   4.845   5.618
   84EMI    H0O 1592   5.532   4.857   5.683
   84EMI    H0P 1593   5.583   4.855   5.516
   84EMI    H0Q 1594   5.658   4.748   5.632
   84EMI    N02 1595   5.837   4.935   5.559
   84EMI    H0E 1596   5.754   4.941   5.750
   85EMI    C01 1597   1.645   0.453   5.900
   85EMI    C04 1598   1.869   0.463   5.928
   85EMI    C03 1599   1.823   0.588   5.934
   85EMI    H07 1600   1.545   0.417   5.884
   85EMI    H09 1601   1.970   0.431   5.938
   85EMI    H08 1602   1.880   0.677   5.949
   85EMI    C05 1603   1.584   0.692   5.914
   85EMI    H0B 1604   1.489   0.660   5.950
   85EMI    H0C 1605   1.622   0.770   5.977
   85EMI    H0D 1606   1.573   0.729   5.814
   85EMI    N00 1607   1.677   0.579   5.915
   85EMI    C06 1608   1.753   0.231   5.893
   85EMI    H0F 1609   1.766   0.205   5.790
   85EMI    C0N 1610   1.870   0.174   5.975
   85EMI    H0O 1611   1.871   0.067   5.966
   85EMI    H0P 1612   1.962   0.214   5.939
   85EMI    H0Q 1613   1.857   0.200   6.078
   85EMI    N02 1614   1.751   0.378   5.906
   85EMI    H0E 1615   1.661   0.191   5.929
   86EMI    C01 1616   5.615   2.917   2.041
   86EMI    C04 1617   5.397   2.865   2.064
   86EMI    C03 1618   5.432   2.936   2.172
   86EMI    H07 1619   5.715   2.925   2.003
   86EMI    H09 1620   5.300   2.824   2.043
   86EMI    H08 1621   5.370   2.964   2.254
   86EMI    C05 1622   5.656   3.047   2.248
   86EMI    H0B 1623   5.732   3.099   2.194
   86EMI    H0C 1624   5.595   3.117   2.299
   86EMI    H0D 1625   5.702   2.981   2.319
   86EMI    N00 1626   5.574   2.969   2.154
   86EMI    C06 1627   5.527   2.784   1.853
   86EMI    H0F 1628   5.554   2.682   1.870
   86EMI    C0N 1629   5.390   2.789   1.782
   86EMI    H0O 1630   5.397   2.738   1.688
   86EMI    H0P 1631   5.316   2.741   1.843
   86EMI    H0Q 1632   5.363   2.891   1.765
   86EMI    N02 1633   5.518   2.854   1.982
   86EMI    H0E 1634   5.601   2.831   1.792
   87EMI    C01 1635   1.031   7.472   2.408
   87EMI    C04 1636   1.132   7.279   2.468
   87EMI    C03 1637   1.219   7.378   2.491
   87EMI    H07 1638   0.960   7.543   2.372
   87EMI    H09 1639   1.148   7.174   2.485
   87EMI    H08 1640   1.318   7.369   2.530
   87EMI    C05 1641   1.208   7.637   2.459
   87EMI    H0B 1642   1.129   7.708   2.475
   87EMI    H0C 1643   1.278   7.642   2.540
   87EMI    H0D 1644   1.258   7.660   2.367
   87EMI    N00 1645   1.151   7.502   2.451
   87EMI    C06 1646   0.889   7.273   2.374
   87EMI    H0F 1647   0.895   7.245   2.271
   87EMI    C0N 1648   0.872   7.146   2.459
   87EMI    H0O 1649   0.782   7.095   2.430
   87EMI    H0P 1650   0.956   7.081   2.444
   87EMI    H0Q 1651   0.865   7.172   2.562
   87EMI    N02 1652   1.012   7.342   2.414
   87EMI    H0E 1653   0.805   7.337   2.389
   88EMI    C01 1654   2.128   4.635   2.816
   88EMI    C04 1655   1.925   4.669   2.909
   88EMI    C03 1656   1.932   4.540   2.874
   88EMI    H07 1657   2.227   4.650   2.778
   88EMI    H09 1658   1.843   4.719   2.956
   88EMI    H08 1659   1.855   4.466   2.887
   88EMI    C05 1660   2.115   4.395   2.760
   88EMI    H0B 1661   2.222   4.392   2.770
   88EMI    H0C 1662   2.072   4.313   2.813
   88EMI    H0D 1663   2.090   4.387   2.656
   88EMI    N00 1664   2.064   4.521   2.814
   88EMI    C06 1665   2.093   4.868   2.890
   88EMI    H0F 1666   2.064   4.926   2.804
   88EMI    C0N 1667   2.022   4.925   3.014
   88EMI    H0O 1668   2.051   5.027   3.029
   88EMI    H0P 1669   1.916   4.919   3.001
   88EMI    H0Q 1670   2.051   4.867   3.100
   88EMI    N02 1671   2.054   4.728   2.870
   88EMI    H0E 1672   2.199   4.874   2.903
   89EMI    C01 1673   2.779   1.097   3.562
   89EMI    C04 1674   2.796   1.318   3.607
   89EMI    C03 1675   2.666   1.285   3.617
   89EMI    H07 1676   2.802   0.996   3.537
   89EMI    H09 1677   2.839   1.415   3.622
   89EMI    H08 1678   2.585   1.351   3.642
   89EMI    C05 1679   2.535   1.062   3.587
   89EMI    H0B 1680   2.558   0.961   3.615
   89EMI    H0C 1681   2.466   1.103   3.657
   89EMI    H0D 1682   2.492   1.063   3.489
   89EMI    N00 1683   2.658   1.142   3.588
   89EMI    C06 1684   3.011   1.182   3.549
   89EMI    H0F 1685   3.033   1.199   3.446
   89EMI    C0N 1686   3.085   1.285   3.636
   89EMI    H0O 1687   3.191   1.275   3.620
   89EMI    H0P 1688   3.054   1.383   3.609
   89EMI    H0Q 1689   3.063   1.267   3.739
   89EMI    N02 1690   2.866   1.194   3.571
   89EMI    H0E 1691   3.042   1.083   3.576
   90EMI    C01 1692   3.026   0.485   4.056
   90EMI    C04 1693   3.125   0.678   3.994
   90EMI    C03 1694   3.219   0.582   3.990
   90EMI    H07 1695   2.954   0.413   4.088
   90EMI    H09 1696   3.139   0.782   3.970
   90EMI    H08 1697   3.321   0.593   3.962
   90EMI    C05 1698   3.215   0.326   4.041
   90EMI    H0B 1699   3.142   0.250   4.022
   90EMI    H0C 1700   3.294   0.319   3.970
   90EMI    H0D 1701   3.254   0.313   4.140
   90EMI    N00 1702   3.151   0.459   4.031
   90EMI    C06 1703   2.872   0.678   4.056
   90EMI    H0F 1704   2.864   0.714   4.157
   90EMI    C0N 1705   2.860   0.798   3.959
   90EMI    H0O 1706   2.766   0.846   3.973
   90EMI    H0P 1707   2.939   0.867   3.979
   90EMI    H0Q 1708   2.868   0.762   3.858
   90EMI    N02 1709   3.002   0.612   4.037
   90EMI    H0E 1710   2.793   0.609   4.037
   91EMI    C01 1711   3.864   5.278   1.615
   91EMI    C04 1712   3.863   5.481   1.516
   91EMI    C03 1713   3.937   5.492   1.627
   91EMI    H07 1714   3.847   5.175   1.636
   91EMI    H09 1715   3.842   5.559   1.445
   91EMI    H08 1716   3.987   5.579   1.663
   91EMI    C05 1717   4.004   5.322   1.814
   91EMI    H0B 1718   4.032   5.219   1.810
   91EMI    H0C 1719   4.092   5.382   1.825
   91EMI    H0D 1720   3.938   5.338   1.896
   91EMI    N00 1721   3.936   5.359   1.689
   91EMI    C06 1722   3.733   5.284   1.405
   91EMI    H0F 1723   3.630   5.295   1.432
   91EMI    C0N 1724   3.759   5.356   1.272
   91EMI    H0O 1725   3.697   5.314   1.196
   91EMI    H0P 1726   3.736   5.460   1.283
   91EMI    H0Q 1727   3.862   5.345   1.245
   91EMI    N02 1728   3.817   5.342   1.510
   91EMI    H0E 1729   3.756   5.180   1.395
   92EMI    C01 1730   6.503   6.544   5.001
   92EMI    C04 1731   6.290   6.520   5.071
   92EMI    C03 1732   6.347   6.399   5.075
   92EMI    H07 1733   6.595   6.586   4.966
   92EMI    H09 1734   6.189   6.545   5.097
   92EMI    H08 1735   6.301   6.308   5.106
   92EMI    C05 1736   6.586   6.312   5.018
   92EMI    H0B 1737   6.683   6.353   5.034
   92EMI    H0C 1738   6.567   6.236   5.091
   92EMI    H0D 1739   6.582   6.269   4.920
   92EMI    N00 1740   6.485   6.418   5.030
   92EMI    C06 1741   6.377   6.756   5.002
   92EMI    H0F 1742   6.344   6.774   4.902
   92EMI    C0N 1743   6.273   6.811   5.101
   92EMI    H0O 1744   6.260   6.916   5.085
   92EMI    H0P 1745   6.179   6.762   5.085
   92EMI    H0Q 1746   6.306   6.793   5.201
   92EMI    N02 1747   6.394   6.612   5.023
   92EMI    H0E 1748   6.470   6.806   5.018
   93EMI    C01 1749   7.607   7.785   4.343
   93EMI    C04 1750   7.735   7.606   4.292
   93EMI    C03 1751   7.667   7.577   4.404
   93EMI    H07 1752   7.561   7.881   4.341
   93EMI    H09 1753   7.804   7.543   4.240
   93EMI    H08 1754   7.672   7.485   4.460
   93EMI    C05 1755   7.495   7.708   4.549
   93EMI    H0B 1756   7.414   7.773   4.523
   93EMI    H0C 1757   7.456   7.612   4.576
   93EMI    H0D 1758   7.548   7.749   4.632
   93EMI    N00 1759   7.586   7.694   4.435
   93EMI    C06 1760   7.742   7.817   4.138
   93EMI    H0F 1761   7.829   7.873   4.165
   93EMI    C0N 1762   7.777   7.718   4.025
   93EMI    H0O 1763   7.812   7.773   3.940
   93EMI    H0P 1764   7.853   7.652   4.059
   93EMI    H0Q 1765   7.690   7.662   3.998
   93EMI    N02 1766   7.694   7.742   4.255
   93EMI    H0E 1767   7.665   7.884   4.105
   94EMI    C01 1768   5.700   3.664   6.542
   94EMI    C04 1769   5.549   3.502   6.499
   94EMI    C03 1770   5.487   3.619   6.484
   94EMI    H07 1771   5.790   3.715   6.568
   94EMI    H09 1772   5.507   3.404   6.486
   94EMI    H08 1773   5.384   3.634   6.457
   94EMI    C05 1774   5.563   3.867   6.509
   94EMI    H0B 1775   5.654   3.917   6.482
   94EMI    H0C 1776   5.488   3.889   6.437
   94EMI    H0D 1777   5.531   3.901   6.605
   94EMI    N00 1778   5.587   3.722   6.513
   94EMI    C06 1779   5.793   3.436   6.564
   94EMI    H0F 1780   5.793   3.411   6.668
   94EMI    C0N 1781   5.769   3.309   6.480
   94EMI    H0O 1782   5.847   3.238   6.500
   94EMI    H0P 1783   5.674   3.267   6.506
   94EMI    H0Q 1784   5.770   3.335   6.376
   94EMI    N02 1785   5.687   3.534   6.537
   94EMI    H0E 1786   5.888   3.478   6.538
   95EMI    C01 1787   4.481   0.771   1.981
   95EMI    C04 1788   4.347   0.589   1.988
   95EMI    C03 1789   4.472   0.545   1.969
   95EMI    H07 1790   4.516   0.872   1.982
   95EMI    H09 1791   4.259   0.529   1.996
   95EMI    H08 1792   4.504   0.444   1.959
   95EMI    C05 1793   4.702   0.666   1.945
   95EMI    H0B 1794   4.744   0.751   1.995
   95EMI    H0C 1795   4.744   0.577   1.985
   95EMI    H0D 1796   4.724   0.673   1.841
   95EMI    N00 1797   4.557   0.665   1.964
   95EMI    C06 1798   4.243   0.827   2.016
   95EMI    H0F 1799   4.202   0.855   1.921
   95EMI    C0N 1800   4.134   0.757   2.099
   95EMI    H0O 1801   4.052   0.823   2.114
   95EMI    H0P 1802   4.101   0.669   2.048
   95EMI    H0Q 1803   4.175   0.729   2.194
   95EMI    N02 1804   4.356   0.735   1.995
   95EMI    H0E 1805   4.277   0.914   2.067
   96EMI    C01 1806   2.056   2.098   3.072
   96EMI    C04 1807   2.230   2.176   3.193
   96EMI    C03 1808   2.139   2.274   3.186
   96EMI    H07 1809   1.992   2.034   3.014
   96EMI    H09 1810   2.324   2.180   3.243
   96EMI    H08 1811   2.146   2.372   3.229
   96EMI    C05 1812   1.904   2.293   3.073
   96EMI    H0B 1813   1.823   2.223   3.064
   96EMI    H0C 1814   1.882   2.363   3.151
   96EMI    H0D 1815   1.917   2.344   2.981
   96EMI    N00 1816   2.027   2.220   3.107
   96EMI    C06 1817   2.238   1.933   3.099
   96EMI    H0F 1818   2.297   1.935   3.010
   96EMI    C0N 1819   2.329   1.902   3.220
   96EMI    H0O 1820   2.376   1.807   3.205
   96EMI    H0P 1821   2.403   1.978   3.228
   96EMI    H0Q 1822   2.269   1.900   3.309
   96EMI    N02 1823   2.173   2.063   3.119
   96EMI    H0E 1824   2.163   1.857   3.090
   97EMI    C01 1825   3.289   0.542   4.458
   97EMI    C04 1826   3.510   0.519   4.418
   97EMI    C03 1827   3.455   0.398   4.406
   97EMI    H07 1828   3.193   0.584   4.480
   97EMI    H09 1829   3.613   0.545   4.406
   97EMI    H08 1830   3.505   0.306   4.383
   97EMI    C05 1831   3.211   0.309   4.431
   97EMI    H0B 1832   3.116   0.350   4.401
   97EMI    H0C 1833   3.240   0.233   4.362
   97EMI    H0D 1834   3.202   0.267   4.529
   97EMI    N00 1835   3.312   0.416   4.433
   97EMI    C06 1836   3.413   0.755   4.474
   97EMI    H0F 1837   3.432   0.774   4.577
   97EMI    C0N 1838   3.530   0.810   4.390
   97EMI    H0O 1839   3.539   0.915   4.406
   97EMI    H0P 1840   3.621   0.761   4.418
   97EMI    H0Q 1841   3.511   0.792   4.286
   97EMI    N02 1842   3.400   0.611   4.451
   97EMI    H0E 1843   3.322   0.804   4.445
   98EMI    C01 1844   1.684   1.677   4.397
   98EMI    C04 1845   1.506   1.795   4.470
   98EMI    C03 1846   1.459   1.684   4.413
   98EMI    H07 1847   1.784   1.646   4.374
   98EMI    H09 1848   1.449   1.873   4.516
   98EMI    H08 1849   1.356   1.655   4.403
   98EMI    C05 1850   1.573   1.480   4.297
   98EMI    H0B 1851   1.662   1.425   4.320
   98EMI    H0C 1852   1.488   1.424   4.329
   98EMI    H0D 1853   1.567   1.496   4.191
   98EMI    N00 1854   1.576   1.609   4.367
   98EMI    C06 1855   1.747   1.889   4.507
   98EMI    H0F 1856   1.765   1.961   4.431
   98EMI    C0N 1857   1.688   1.959   4.631
   98EMI    H0O 1858   1.757   2.032   4.667
   98EMI    H0P 1859   1.596   2.006   4.605
   98EMI    H0Q 1860   1.670   1.887   4.708
   98EMI    N02 1861   1.652   1.788   4.458
   98EMI    H0E 1862   1.839   1.841   4.534
   99EMI    C01 1863   1.606   7.025   7.410
   99EMI    C04 1864   1.664   6.960   7.201
   99EMI    C03 1865   1.575   6.871   7.247
   99EMI    H07 1866   1.600   7.078   7.502
   99EMI    H09 1867   1.711   6.960   7.105
   99EMI    H08 1868   1.538   6.785   7.195
   99EMI    C05 1869   1.445   6.848   7.472
   99EMI    H0B 1870   1.399   6.920   7.536
   99EMI    H0C 1871   1.370   6.798   7.414
   99EMI    H0D 1872   1.498   6.776   7.532
   99EMI    N00 1873   1.540   6.915   7.382
   99EMI    C06 1874   1.771   7.175   7.303
   99EMI    H0F 1875   1.868   7.148   7.340
   99EMI    C0N 1876   1.782   7.225   7.158
   99EMI    H0O 1877   1.847   7.310   7.154
   99EMI    H0P 1878   1.823   7.146   7.097
   99EMI    H0Q 1879   1.685   7.252   7.121
   99EMI    N02 1880   1.682   7.058   7.308
   99EMI    H0E 1881   1.730   7.253   7.364
  100EMI    C01 1882   1.022   0.993   2.808
  100EMI    C04 1883   1.152   0.847   2.696
  100EMI    C03 1884   1.149   0.960   2.625
  100EMI    H07 1885   0.957   1.037   2.881
  100EMI    H09 1886   1.205   0.757   2.672
  100EMI    H08 1887   1.199   0.979   2.532
  100EMI    C05 1888   1.031   1.190   2.660
  100EMI    H0B 1889   1.015   1.250   2.747
  100EMI    H0C 1890   1.112   1.231   2.603
  100EMI    H0D 1891   0.943   1.190   2.600
  100EMI    N00 1892   1.064   1.052   2.700
  100EMI    C06 1893   1.042   0.774   2.922
  100EMI    H0F 1894   0.955   0.717   2.897
  100EMI    C0N 1895   1.163   0.680   2.937
  100EMI    H0O 1896   1.144   0.609   3.015
  100EMI    H0P 1897   1.179   0.627   2.845
  100EMI    H0Q 1898   1.250   0.737   2.961
  100EMI    N02 1899   1.069   0.871   2.814
  100EMI    H0E 1900   1.026   0.826   3.014
  101EMI    C01 1901   0.732   6.918   4.949
  101EMI    C04 1902   0.936   6.933   4.853
  101EMI    C03 1903   0.886   6.814   4.821
  101EMI    H07 1904   0.644   6.941   5.005
  101EMI    H09 1905   1.031   6.973   4.824
  101EMI    H08 1906   0.932   6.738   4.760
  101EMI    C05 1907   0.661   6.693   4.877
  101EMI    H0B 1908   0.560   6.729   4.883
  101EMI    H0C 1909   0.674   6.642   4.784
  101EMI    H0D 1910   0.680   6.626   4.957
  101EMI    N00 1911   0.754   6.807   4.884
  101EMI    C06 1912   0.846   7.133   4.995
  101EMI    H0F 1913   0.891   7.126   5.092
  101EMI    C0N 1914   0.934   7.222   4.904
  101EMI    H0O 1915   0.942   7.319   4.947
  101EMI    H0P 1916   1.031   7.178   4.896
  101EMI    H0Q 1917   0.889   7.229   4.807
  101EMI    N02 1918   0.835   6.999   4.936
  101EMI    H0E 1919   0.749   7.176   5.004
  102EMI    C01 1920   3.599   3.473   6.692
  102EMI    C04 1921   3.567   3.257   6.749
  102EMI    C03 1922   3.699   3.279   6.750
  102EMI    H07 1923   3.582   3.574   6.663
  102EMI    H09 1924   3.518   3.165   6.771
  102EMI    H08 1925   3.776   3.209   6.773
  102EMI    C05 1926   3.845   3.490   6.701
  102EMI    H0B 1927   3.832   3.594   6.724
  102EMI    H0C 1928   3.916   3.447   6.769
  102EMI    H0D 1929   3.882   3.481   6.601
  102EMI    N00 1930   3.717   3.420   6.713
  102EMI    C06 1931   3.361   3.407   6.696
  102EMI    H0F 1932   3.331   3.386   6.595
  102EMI    C0N 1933   3.284   3.315   6.792
  102EMI    H0O 1934   3.179   3.332   6.781
  102EMI    H0P 1935   3.306   3.213   6.769
  102EMI    H0Q 1936   3.313   3.335   6.893
  102EMI    N02 1937   3.505   3.384   6.710
  102EMI    H0E 1938   3.339   3.509   6.719
  103EMI    C01 1939   4.179   0.533   6.636
  103EMI    C04 1940   4.295   0.359   6.719
  103EMI    C03 1941   4.380   0.462   6.708
  103EMI    H07 1942   4.100   0.594   6.597
  103EMI    H09 1943   4.317   0.261   6.756
  103EMI    H08 1944   4.484   0.462   6.733
  103EMI    C05 1945   4.354   0.707   6.624
  103EMI    H0B 1946   4.276   0.779   6.636
  103EMI    H0C 1947   4.434   0.730   6.691
  103EMI    H0D 1948   4.390   0.710   6.523
  103EMI    N00 1949   4.302   0.573   6.653
  103EMI    C06 1950   4.042   0.330   6.666
  103EMI    H0F 1951   4.034   0.282   6.571
  103EMI    C0N 1952   4.042   0.224   6.778
  103EMI    H0O 1953   3.952   0.167   6.773
  103EMI    H0P 1954   4.126   0.159   6.764
  103EMI    H0Q 1955   4.049   0.273   6.873
  103EMI    N02 1956   4.166   0.408   6.672
  103EMI    H0E 1957   3.958   0.395   6.679
  104EMI    C01 1958   2.550   7.162   1.759
  104EMI    C04 1959   2.563   6.937   1.775
  104EMI    C03 1960   2.438   6.972   1.809
  104EMI    H07 1961   2.574   7.265   1.743
  104EMI    H09 1962   2.603   6.838   1.771
  104EMI    H08 1963   2.359   6.906   1.839
  104EMI    C05 1964   2.315   7.201   1.827
  104EMI    H0B 1965   2.318   7.289   1.765
  104EMI    H0C 1966   2.226   7.146   1.805
  104EMI    H0D 1967   2.316   7.230   1.930
  104EMI    N00 1968   2.433   7.118   1.798
  104EMI    C06 1969   2.773   7.073   1.700
  104EMI    H0F 1970   2.836   7.084   1.786
  104EMI    C0N 1971   2.813   6.946   1.623
  104EMI    H0O 1972   2.915   6.954   1.592
  104EMI    H0P 1973   2.802   6.861   1.686
  104EMI    H0Q 1974   2.750   6.935   1.537
  104EMI    N02 1975   2.632   7.062   1.743
  104EMI    H0E 1976   2.784   7.158   1.637
  105EMI    C01 1977   4.749   5.345   3.448
  105EMI    C04 1978   4.654   5.222   3.284
  105EMI    C03 1979   4.781   5.247   3.247
  105EMI    H07 1980   4.764   5.399   3.539
  105EMI    H09 1981   4.581   5.167   3.229
  105EMI    H08 1982   4.829   5.215   3.157
  105EMI    C05 1983   4.977   5.377   3.360
  105EMI    H0B 1984   5.010   5.383   3.461
  105EMI    H0C 1985   5.041   5.310   3.306
  105EMI    H0D 1986   4.981   5.474   3.315
  105EMI    N00 1987   4.839   5.326   3.356
  105EMI    C06 1988   4.513   5.287   3.493
  105EMI    H0F 1989   4.453   5.371   3.467
  105EMI    C0N 1990   4.434   5.157   3.465
  105EMI    H0O 1991   4.344   5.157   3.523
  105EMI    H0P 1992   4.409   5.152   3.361
  105EMI    H0Q 1993   4.494   5.073   3.492
  105EMI    N02 1994   4.636   5.287   3.414
  105EMI    H0E 1995   4.537   5.292   3.597
  106EMI    C01 1996   5.901   2.247   3.494
  106EMI    C04 1997   5.846   2.417   3.357
  106EMI    C03 1998   5.825   2.459   3.482
  106EMI    H07 1999   5.934   2.152   3.531
  106EMI    H09 2000   5.830   2.473   3.267
  106EMI    H08 2001   5.789   2.555   3.513
  106EMI    C05 2002   5.856   2.346   3.716
  106EMI    H0B 2003   5.931   2.281   3.755
  106EMI    H0C 2004   5.872   2.445   3.752
  106EMI    H0D 2005   5.759   2.312   3.747
  106EMI    N00 2006   5.862   2.347   3.569
  106EMI    C06 2007   5.931   2.193   3.255
  106EMI    H0F 2008   5.845   2.138   3.223
  106EMI    C0N 2009   5.982   2.279   3.138
  106EMI    H0O 2010   6.009   2.216   3.056
  106EMI    H0P 2011   5.906   2.347   3.107
  106EMI    H0Q 2012   6.069   2.334   3.170
  106EMI    N02 2013   5.895   2.280   3.368
  106EMI    H0E 2014   6.008   2.125   3.285
  107EMI    C01 2015   5.753   6.788   1.173
  107EMI    C04 2016   5.541   6.718   1.137
  107EMI    C03 2017   5.561   6.826   1.060
  107EMI    H07 2018   5.853   6.796   1.209
  107EMI    H09 2019   5.452   6.660   1.144
  107EMI    H08 2020   5.490   6.871   0.994
  107EMI    C05 2021   5.765   6.984   1.023
  107EMI    H0B 2022   5.870   6.965   1.015
  107EMI    H0C 2023   5.724   7.000   0.925
  107EMI    H0D 2024   5.749   7.072   1.083
  107EMI    N00 2025   5.699   6.869   1.085
  107EMI    C06 2026   5.693   6.588   1.305
  107EMI    H0F 2027   5.667   6.621   1.403
  107EMI    C0N 2028   5.608   6.465   1.268
  107EMI    H0O 2029   5.627   6.386   1.338
  107EMI    H0P 2030   5.504   6.491   1.271
  107EMI    H0Q 2031   5.634   6.432   1.170
  107EMI    N02 2032   5.667   6.696   1.209
  107EMI    H0E 2033   5.796   6.562   1.302
  108EMI    C01 2034   6.133   1.451   1.947
  108EMI    C04 2035   6.027   1.254   1.918
  108EMI    C03 2036   5.935   1.350   1.908
  108EMI    H07 2037   6.208   1.525   1.964
  108EMI    H09 2038   6.011   1.148   1.910
  108EMI    H08 2039   5.830   1.338   1.889
  108EMI    C05 2040   5.946   1.611   1.924
  108EMI    H0B 2041   6.018   1.682   1.889
  108EMI    H0C 2042   5.861   1.610   1.858
  108EMI    H0D 2043   5.914   1.638   2.022
  108EMI    N00 2044   6.006   1.477   1.927
  108EMI    C06 2045   6.284   1.256   1.962
  108EMI    H0F 2046   6.299   1.235   2.066
  108EMI    C0N 2047   6.287   1.125   1.882
  108EMI    H0O 2048   6.382   1.077   1.896
  108EMI    H0P 2049   6.209   1.060   1.916
  108EMI    H0Q 2050   6.273   1.146   1.778
  108EMI    N02 2051   6.154   1.322   1.944
  108EMI    H0E 2052   6.362   1.321   1.928
  109EMI    C01 2053   5.139   1.196   5.747
  109EMI    C04 2054   5.204   0.983   5.785
  109EMI    C03 2055   5.313   1.060   5.795
  109EMI    H07 2056   5.080   1.283   5.726
  109EMI    H09 2057   5.199   0.877   5.796
  109EMI    H08 2058   5.412   1.028   5.817
  109EMI    C05 2059   5.353   1.317   5.772
  109EMI    H0B 2060   5.296   1.401   5.803
  109EMI    H0C 2061   5.435   1.302   5.840
  109EMI    H0D 2062   5.392   1.334   5.673
  109EMI    N00 2063   5.268   1.197   5.771
  109EMI    C06 2064   4.953   1.034   5.733
  109EMI    H0F 2065   4.937   1.013   5.629
  109EMI    C0N 2066   4.922   0.909   5.817
  109EMI    H0O 2067   4.820   0.880   5.801
  109EMI    H0P 2068   4.987   0.829   5.786
  109EMI    H0Q 2069   4.938   0.930   5.920
  109EMI    N02 2070   5.093   1.074   5.753
  109EMI    H0E 2071   4.888   1.114   5.763
  110EMI    C01 2072   3.929   4.588   6.388
  110EMI    C04 2073   3.901   4.392   6.497
  110EMI    C03 2074   3.957   4.364   6.378
  110EMI    H07 2075   3.930   4.692   6.364
  110EMI    H09 2076   3.874   4.322   6.573
  110EMI    H08 2077   3.983   4.267   6.341
  110EMI    C05 2078   4.032   4.512   6.177
  110EMI    H0B 2079   4.080   4.607   6.172
  110EMI    H0C 2080   4.103   4.435   6.158
  110EMI    H0D 2081   3.954   4.507   6.103
  110EMI    N00 2082   3.974   4.493   6.310
  110EMI    C06 2083   3.827   4.614   6.612
  110EMI    H0F 2084   3.721   4.623   6.598
  110EMI    C0N 2085   3.855   4.541   6.744
  110EMI    H0O 2086   3.813   4.597   6.825
  110EMI    H0P 2087   3.810   4.444   6.742
  110EMI    H0Q 2088   3.960   4.532   6.758
  110EMI    N02 2089   3.884   4.537   6.500
  110EMI    H0E 2090   3.871   4.711   6.615
  111EMI    C01 2091   4.120   6.905   5.973
  111EMI    C04 2092   4.138   7.129   5.992
  111EMI    C03 2093   4.237   7.075   6.065
  111EMI    H07 2094   4.087   6.807   5.946
  111EMI    H09 2095   4.117   7.234   5.979
  111EMI    H08 2096   4.311   7.128   6.122
  111EMI    C05 2097   4.309   6.830   6.113
  111EMI    H0B 2098   4.313   6.742   6.051
  111EMI    H0C 2099   4.408   6.869   6.125
  111EMI    H0D 2100   4.269   6.803   6.209
  111EMI    N00 2101   4.222   6.930   6.051
  111EMI    C06 2102   3.947   7.028   5.846
  111EMI    H0F 2103   3.858   7.028   5.906
  111EMI    C0N 2104   3.955   7.158   5.765
  111EMI    H0O 2105   3.870   7.166   5.701
  111EMI    H0P 2106   3.958   7.242   5.832
  111EMI    H0Q 2107   4.044   7.158   5.705
  111EMI    N02 2108   4.064   7.017   5.934
  111EMI    H0E 2109   3.945   6.944   5.779
  112EMI    C01 2110   4.710   5.728   2.015
  112EMI    C04 2111   4.851   5.868   1.909
  112EMI    C03 2112   4.870   5.747   1.857
  112EMI    H07 2113   4.635   5.689   2.080
  112EMI    H09 2114   4.903   5.958   1.882
  112EMI    H08 2115   4.938   5.720   1.779
  112EMI    C05 2116   4.761   5.514   1.902
  112EMI    H0B 2117   4.660   5.485   1.924
  112EMI    H0C 2118   4.783   5.492   1.800
  112EMI    H0D 2119   4.827   5.459   1.966
  112EMI    N00 2120   4.776   5.658   1.927
  112EMI    C06 2121   4.694   5.961   2.096
  112EMI    H0F 2122   4.752   5.968   2.186
  112EMI    C0N 2123   4.702   6.095   2.020
  112EMI    H0O 2124   4.664   6.173   2.082
  112EMI    H0P 2125   4.804   6.116   1.995
  112EMI    H0Q 2126   4.644   6.088   1.930
  112EMI    N02 2127   4.748   5.853   2.011
  112EMI    H0E 2128   4.592   5.940   2.121
  113EMI    C01 2129   7.181   6.820   3.801
  113EMI    C04 2130   7.288   6.877   3.991
  113EMI    C03 2131   7.194   6.787   4.024
  113EMI    H07 2132   7.152   6.814   3.698
  113EMI    H09 2133   7.357   6.925   4.058
  113EMI    H08 2134   7.172   6.749   4.121
  113EMI    C05 2135   7.015   6.657   3.885
  113EMI    H0B 2136   7.019   6.611   3.788
  113EMI    H0C 2137   7.024   6.582   3.960
  113EMI    H0D 2138   6.922   6.709   3.896
  113EMI    N00 2139   7.127   6.752   3.898
  113EMI    C06 2140   7.361   6.985   3.766
  113EMI    H0F 2141   7.316   7.082   3.760
  113EMI    C0N 2142   7.501   6.997   3.830
  113EMI    H0O 2143   7.562   7.063   3.772
  113EMI    H0P 2144   7.491   7.037   3.929
  113EMI    H0Q 2145   7.546   6.901   3.835
  113EMI    N02 2146   7.278   6.896   3.846
  113EMI    H0E 2147   7.372   6.945   3.667
  114EMI    C01 2148   4.876   0.950   0.168
  114EMI    C04 2149   5.008   0.780   0.236
  114EMI    C03 2150   5.072   0.894   0.265
  114EMI    H07 2151   4.795   1.006   0.126
  114EMI    H09 2152   5.043   0.680   0.254
  114EMI    H08 2153   5.167   0.904   0.312
  114EMI    C05 2154   5.012   1.146   0.231
  114EMI    H0B 2155   4.920   1.200   0.241
  114EMI    H0C 2156   5.073   1.163   0.318
  114EMI    H0D 2157   5.063   1.179   0.144
  114EMI    N00 2158   4.984   1.002   0.220
  114EMI    C06 2159   4.779   0.727   0.123
  114EMI    H0F 2160   4.798   0.703   0.021
  114EMI    C0N 2161   4.781   0.598   0.207
  114EMI    H0O 2162   4.705   0.531   0.172
  114EMI    H0P 2163   4.877   0.551   0.199
  114EMI    H0Q 2164   4.761   0.622   0.310
  114EMI    N02 2165   4.882   0.819   0.173
  114EMI    H0E 2166   4.683   0.773   0.131
  115EMI    C01 2167   5.236   3.884   2.750
  115EMI    C04 2168   5.350   4.048   2.856
  115EMI    C03 2169   5.425   4.008   2.752
  115EMI    H07 2170   5.161   3.813   2.723
  115EMI    H09 2171   5.374   4.124   2.927
  115EMI    H08 2172   5.521   4.045   2.724
  115EMI    C05 2173   5.392   3.827   2.567
  115EMI    H0B 2174   5.306   3.797   2.510
  115EMI    H0C 2175   5.454   3.889   2.506
  115EMI    H0D 2176   5.446   3.740   2.597
  115EMI    N00 2177   5.349   3.902   2.686
  115EMI    C06 2178   5.116   3.975   2.946
  115EMI    H0F 2179   5.133   3.908   3.028
  115EMI    C0N 2180   5.105   4.119   2.999
  115EMI    H0O 2181   5.023   4.126   3.068
  115EMI    H0P 2182   5.196   4.146   3.049
  115EMI    H0Q 2183   5.088   4.186   2.917
  115EMI    N02 2184   5.228   3.966   2.852
  115EMI    H0E 2185   5.025   3.948   2.896
  116EMI    C01 2186   3.820   0.444   1.292
  116EMI    C04 2187   3.949   0.370   1.122
  116EMI    C03 2188   3.872   0.468   1.074
  116EMI    H07 2189   3.776   0.456   1.389
  116EMI    H09 2190   4.022   0.313   1.068
  116EMI    H08 2191   3.870   0.505   0.973
  116EMI    C05 2192   3.689   0.621   1.180
  116EMI    H0B 2193   3.683   0.669   1.276
  116EMI    H0C 2194   3.718   0.693   1.107
  116EMI    H0D 2195   3.594   0.579   1.155
  116EMI    N00 2196   3.790   0.514   1.186
  116EMI    C06 2197   3.973   0.261   1.358
  116EMI    H0F 2198   3.917   0.170   1.357
  116EMI    C0N 2199   4.118   0.231   1.317
  116EMI    H0O 2200   4.162   0.162   1.385
  116EMI    H0P 2201   4.120   0.190   1.218
  116EMI    H0Q 2202   4.175   0.322   1.318
  116EMI    N02 2203   3.913   0.356   1.264
  116EMI    H0E 2204   3.972   0.302   1.456
  117EMI    C01 2205   1.778   0.637   1.779
  117EMI    C04 2206   1.563   0.702   1.802
  117EMI    C03 2207   1.563   0.569   1.790
  117EMI    H07 2208   1.885   0.638   1.771
  117EMI    H09 2209   1.478   0.765   1.814
  117EMI    H08 2210   1.478   0.504   1.791
  117EMI    C05 2211   1.753   0.392   1.760
  117EMI    H0B 2212   1.851   0.384   1.803
  117EMI    H0C 2213   1.687   0.324   1.811
  117EMI    H0D 2214   1.757   0.367   1.656
  117EMI    N00 2215   1.704   0.529   1.776
  117EMI    C06 2216   1.752   0.882   1.802
  117EMI    H0F 2217   1.756   0.924   1.704
  117EMI    C0N 2218   1.657   0.965   1.890
  117EMI    H0O 2219   1.692   1.066   1.895
  117EMI    H0P 2220   1.559   0.964   1.847
  117EMI    H0Q 2221   1.653   0.923   1.988
  117EMI    N02 2222   1.703   0.743   1.794
  117EMI    H0E 2223   1.850   0.883   1.845
  118EMI    C01 2224   5.687   0.586   7.004
  118EMI    C04 2225   5.845   0.501   7.141
  118EMI    C03 2226   5.909   0.560   7.039
  118EMI    H07 2227   5.593   0.613   6.961
  118EMI    H09 2228   5.890   0.451   7.225
  118EMI    H08 2229   6.014   0.566   7.024
  118EMI    C05 2230   5.826   0.687   6.826
  118EMI    H0B 2231   5.746   0.756   6.811
  118EMI    H0C 2232   5.919   0.740   6.832
  118EMI    H0D 2233   5.830   0.618   6.745
  118EMI    N00 2234   5.804   0.614   6.952
  118EMI    C06 2235   5.593   0.471   7.202
  118EMI    H0F 2236   5.565   0.373   7.171
  118EMI    C0N 2237   5.641   0.468   7.348
  118EMI    H0O 2238   5.561   0.433   7.411
  118EMI    H0P 2239   5.725   0.403   7.357
  118EMI    H0Q 2240   5.669   0.567   7.378
  118EMI    N02 2241   5.702   0.520   7.116
  118EMI    H0E 2242   5.509   0.537   7.193
  119EMI    C01 2243   2.525   4.613   4.264
  119EMI    C04 2244   2.392   4.614   4.446
  119EMI    C03 2245   2.385   4.736   4.391
  119EMI    H07 2246   2.593   4.583   4.187
  119EMI    H09 2247   2.342   4.580   4.534
  119EMI    H08 2248   2.327   4.819   4.426
  119EMI    C05 2249   2.495   4.844   4.181
  119EMI    H0B 2250   2.516   4.806   4.083
  119EMI    H0C 2251   2.408   4.906   4.177
  119EMI    H0D 2252   2.579   4.902   4.215
  119EMI    N00 2253   2.472   4.732   4.273
  119EMI    C06 2254   2.523   4.397   4.383
  119EMI    H0F 2255   2.610   4.394   4.445
  119EMI    C0N 2256   2.408   4.322   4.453
  119EMI    H0O 2257   2.436   4.220   4.469
  119EMI    H0P 2258   2.387   4.368   4.547
  119EMI    H0Q 2259   2.321   4.325   4.391
  119EMI    N02 2260   2.484   4.537   4.362
  119EMI    H0E 2261   2.544   4.351   4.289
  120EMI    C01 2262   4.257   2.253   6.517
  120EMI    C04 2263   4.390   2.176   6.683
  120EMI    C03 2264   4.332   2.070   6.625
  120EMI    H07 2265   4.206   2.317   6.449
  120EMI    H09 2266   4.459   2.176   6.765
  120EMI    H08 2267   4.346   1.967   6.652
  120EMI    C05 2268   4.164   2.042   6.428
  120EMI    H0B 2269   4.155   2.092   6.334
  120EMI    H0C 2270   4.209   1.946   6.414
  120EMI    H0D 2271   4.067   2.029   6.470
  120EMI    N00 2272   4.247   2.122   6.518
  120EMI    C06 2273   4.375   2.433   6.638
  120EMI    H0F 2274   4.307   2.474   6.709
  120EMI    C0N 2275   4.518   2.439   6.694
  120EMI    H0O 2276   4.545   2.541   6.715
  120EMI    H0P 2277   4.523   2.382   6.785
  120EMI    H0Q 2278   4.587   2.398   6.623
  120EMI    N02 2279   4.339   2.293   6.610
  120EMI    H0E 2280   4.370   2.490   6.547
  121EMI    C01 2281   2.839   6.689   0.977
  121EMI    C04 2282   2.756   6.484   0.934
  121EMI    C03 2283   2.851   6.470   1.027
  121EMI    H07 2284   2.857   6.795   0.974
  121EMI    H09 2285   2.697   6.406   0.890
  121EMI    H08 2286   2.883   6.379   1.074
  121EMI    C05 2287   3.009   6.639   1.149
  121EMI    H0B 2288   2.993   6.737   1.186
  121EMI    H0C 2289   3.007   6.569   1.230
  121EMI    H0D 2290   3.104   6.634   1.100
  121EMI    N00 2291   2.903   6.604   1.053
  121EMI    C06 2292   2.661   6.690   0.805
  121EMI    H0F 2293   2.708   6.692   0.709
  121EMI    C0N 2294   2.530   6.609   0.796
  121EMI    H0O 2295   2.465   6.655   0.725
  121EMI    H0P 2296   2.553   6.509   0.765
  121EMI    H0Q 2297   2.483   6.606   0.892
  121EMI    N02 2298   2.751   6.627   0.903
  121EMI    H0E 2299   2.639   6.790   0.837
  122EMI    C01 2300   1.284   5.056   6.304
  122EMI    C04 2301   1.482   4.992   6.394
  122EMI    C03 2302   1.485   5.125   6.383
  122EMI    H07 2303   1.186   5.055   6.263
  122EMI    H09 2304   1.559   4.929   6.432
  122EMI    H08 2305   1.565   5.190   6.410
  122EMI    C05 2306   1.313   5.301   6.294
  122EMI    H0B 2307   1.207   5.309   6.303
  122EMI    H0C 2308   1.360   5.369   6.362
  122EMI    H0D 2309   1.342   5.326   6.194
  122EMI    N00 2310   1.356   5.164   6.324
  122EMI    C06 2311   1.302   4.811   6.334
  122EMI    H0F 2312   1.330   4.769   6.240
  122EMI    C0N 2313   1.366   4.728   6.448
  122EMI    H0O 2314   1.330   4.627   6.442
  122EMI    H0P 2315   1.472   4.729   6.438
  122EMI    H0Q 2316   1.338   4.771   6.542
  122EMI    N02 2317   1.351   4.950   6.342
  122EMI    H0E 2318   1.196   4.810   6.344
  123EMI    C01 2319   6.915   0.512   5.601
  123EMI    C04 2320   6.702   0.447   5.565
  123EMI    C03 2321   6.703   0.580   5.561
  123EMI    H07 2322   7.020   0.512   5.620
  123EMI    H09 2323   6.617   0.383   5.551
  123EMI    H08 2324   6.620   0.645   5.544
  123EMI    C05 2325   6.892   0.758   5.589
  123EMI    H0B 2326   6.994   0.761   5.556
  123EMI    H0C 2327   6.833   0.820   5.525
  123EMI    H0D 2328   6.886   0.795   5.689
  123EMI    N00 2329   6.842   0.620   5.585
  123EMI    C06 2330   6.887   0.267   5.604
  123EMI    H0F 2331   6.881   0.236   5.706
  123EMI    C0N 2332   6.800   0.175   5.517
  123EMI    H0O 2333   6.834   0.073   5.527
  123EMI    H0P 2334   6.698   0.181   5.550
  123EMI    H0Q 2335   6.806   0.205   5.415
  123EMI    N02 2336   6.840   0.405   5.591
  123EMI    H0E 2337   6.989   0.260   5.571
  124EMI    C01 2338   3.528   2.076   6.447
  124EMI    C04 2339   3.621   2.207   6.605
  124EMI    C03 2340   3.573   2.099   6.667
  124EMI    H07 2341   3.494   2.038   6.353
  124EMI    H09 2342   3.672   2.290   6.651
  124EMI    H08 2343   3.577   2.077   6.772
  124EMI    C05 2344   3.448   1.886   6.583
  124EMI    H0B 2345   3.460   1.825   6.495
  124EMI    H0C 2346   3.491   1.836   6.667
  124EMI    H0D 2347   3.343   1.901   6.600
  124EMI    N00 2348   3.513   2.016   6.562
  124EMI    C06 2349   3.625   2.284   6.356
  124EMI    H0F 2350   3.545   2.354   6.343
  124EMI    C0N 2351   3.754   2.360   6.394
  124EMI    H0O 2352   3.779   2.429   6.316
  124EMI    H0P 2353   3.738   2.414   6.485
  124EMI    H0Q 2354   3.834   2.290   6.407
  124EMI    N02 2355   3.591   2.190   6.463
  124EMI    H0E 2356   3.641   2.231   6.265
  125EMI    C01 2357   4.929   1.065   3.081
  125EMI    C04 2358   4.989   0.977   2.881
  125EMI    C03 2359   4.986   1.110   2.867
  125EMI    H07 2360   4.900   1.075   3.183
  125EMI    H09 2361   5.014   0.905   2.807
  125EMI    H08 2362   5.008   1.166   2.779
  125EMI    C05 2363   4.930   1.306   3.030
  125EMI    H0B 2364   4.953   1.323   3.134
  125EMI    H0C 2365   4.996   1.365   2.969
  125EMI    H0D 2366   4.829   1.336   3.011
  125EMI    N00 2367   4.947   1.164   2.998
  125EMI    C06 2368   4.942   0.818   3.083
  125EMI    H0F 2369   4.843   0.780   3.071
  125EMI    C0N 2370   5.042   0.722   3.015
  125EMI    H0O 2371   5.035   0.625   3.060
  125EMI    H0P 2372   5.019   0.714   2.910
  125EMI    H0Q 2373   5.141   0.759   3.027
  125EMI    N02 2374   4.952   0.951   3.021
  125EMI    H0E 2375   4.966   0.825   3.187
  126EMI    C01 2376   5.307   5.875   6.612
  126EMI    C04 2377   5.117   5.983   6.556
  126EMI    C03 2378   5.215   6.034   6.481
  126EMI    H07 2379   5.377   5.809   6.658
  126EMI    H09 2380   5.013   6.011   6.555
  126EMI    H08 2381   5.206   6.112   6.408
  126EMI    C05 2382   5.471   5.986   6.463
  126EMI    H0B 2383   5.527   5.894   6.466
  126EMI    H0C 2384   5.462   6.019   6.362
  126EMI    H0D 2385   5.521   6.060   6.521
  126EMI    N00 2386   5.337   5.963   6.520
  126EMI    C06 2387   5.110   5.796   6.739
  126EMI    H0F 2388   5.111   5.845   6.834
  126EMI    C0N 2389   4.964   5.774   6.694
  126EMI    H0O 2390   4.914   5.713   6.766
  126EMI    H0P 2391   4.915   5.869   6.687
  126EMI    H0Q 2392   4.963   5.725   6.599
  126EMI    N02 2393   5.179   5.880   6.640
  126EMI    H0E 2394   5.160   5.702   6.746
  127EMI    C01 2395   1.652   3.676   3.102
  127EMI    C04 2396   1.582   3.752   2.901
  127EMI    C03 2397   1.706   3.706   2.885
  127EMI    H07 2398   1.656   3.650   3.205
  127EMI    H09 2399   1.519   3.795   2.826
  127EMI    H08 2400   1.763   3.705   2.794
  127EMI    C05 2401   1.880   3.598   3.047
  127EMI    H0B 2402   1.869   3.528   3.127
  127EMI    H0C 2403   1.918   3.548   2.960
  127EMI    H0D 2404   1.948   3.675   3.076
  127EMI    N00 2405   1.749   3.658   3.016
  127EMI    C06 2406   1.422   3.767   3.107
  127EMI    H0F 2407   1.428   3.867   3.145
  127EMI    C0N 2408   1.308   3.757   3.004
  127EMI    H0O 2409   1.215   3.783   3.051
  127EMI    H0P 2410   1.327   3.825   2.923
  127EMI    H0Q 2411   1.302   3.657   2.967
  127EMI    N02 2412   1.549   3.732   3.042
  127EMI    H0E 2413   1.403   3.699   3.188
  128EMI    C01 2414   0.656   1.636   4.934
  128EMI    C04 2415   0.732   1.836   4.861
  128EMI    C03 2416   0.765   1.744   4.769
  128EMI    H07 2417   0.610   1.560   4.993
  128EMI    H09 2418   0.753   1.940   4.858
  128EMI    H08 2419   0.818   1.761   4.678
  128EMI    C05 2420   0.728   1.487   4.751
  128EMI    H0B 2421   0.644   1.424   4.776
  128EMI    H0C 2422   0.730   1.502   4.645
  128EMI    H0D 2423   0.818   1.439   4.782
  128EMI    N00 2424   0.714   1.616   4.819
  128EMI    C06 2425   0.606   1.822   5.089
  128EMI    H0F 2426   0.680   1.820   5.166
  128EMI    C0N 2427   0.564   1.968   5.061
  128EMI    H0O 2428   0.524   2.011   5.151
  128EMI    H0P 2429   0.650   2.024   5.030
  128EMI    H0Q 2430   0.490   1.969   4.984
  128EMI    N02 2431   0.661   1.762   4.967
  128EMI    H0E 2432   0.520   1.766   5.120
  129EMI    C01 2433   1.351   5.958   1.284
  129EMI    C04 2434   1.546   5.876   1.362
  129EMI    C03 2435   1.488   5.779   1.292
  129EMI    H07 2436   1.269   6.023   1.263
  129EMI    H09 2437   1.641   5.871   1.413
  129EMI    H08 2438   1.525   5.680   1.275
  129EMI    C05 2439   1.263   5.764   1.161
  129EMI    H0B 2440   1.212   5.834   1.098
  129EMI    H0C 2441   1.312   5.691   1.100
  129EMI    H0D 2442   1.192   5.715   1.224
  129EMI    N00 2443   1.361   5.835   1.243
  129EMI    C06 2444   1.479   6.122   1.419
  129EMI    H0F 2445   1.438   6.122   1.517
  129EMI    C0N 2446   1.630   6.149   1.426
  129EMI    H0O 2447   1.647   6.245   1.472
  129EMI    H0P 2448   1.678   6.073   1.484
  129EMI    H0Q 2449   1.671   6.150   1.327
  129EMI    N02 2450   1.456   5.991   1.356
  129EMI    H0E 2451   1.432   6.198   1.361
  130EMI    C01 2452   3.685   7.139   2.690
  130EMI    C04 2453   3.880   7.025   2.702
  130EMI    C03 2454   3.868   7.070   2.577
  130EMI    H07 2455   3.592   7.184   2.715
  130EMI    H09 2456   3.960   6.967   2.742
  130EMI    H08 2457   3.938   7.056   2.497
  130EMI    C05 2458   3.687   7.212   2.454
  130EMI    H0B 2459   3.628   7.295   2.485
  130EMI    H0C 2460   3.767   7.246   2.392
  130EMI    H0D 2461   3.625   7.144   2.399
  130EMI    N00 2462   3.742   7.144   2.572
  130EMI    C06 2463   3.729   7.044   2.914
  130EMI    H0F 2464   3.673   6.953   2.922
  130EMI    C0N 2465   3.860   7.031   2.994
  130EMI    H0O 2466   3.837   7.012   3.097
  130EMI    H0P 2467   3.918   6.950   2.955
  130EMI    H0Q 2468   3.916   7.122   2.986
  130EMI    N02 2469   3.760   7.070   2.773
  130EMI    H0E 2470   3.671   7.125   2.954
  131EMI    C01 2471   1.753   3.819   1.970
  131EMI    C04 2472   1.773   4.039   1.925
  131EMI    C03 2473   1.896   3.986   1.921
  131EMI    H07 2474   1.712   3.722   1.993
  131EMI    H09 2475   1.747   4.141   1.908
  131EMI    H08 2476   1.988   4.037   1.901
  131EMI    C05 2477   1.988   3.744   1.958
  131EMI    H0B 2478   1.951   3.648   1.929
  131EMI    H0C 2479   2.067   3.773   1.891
  131EMI    H0D 2480   2.026   3.739   2.058
  131EMI    N00 2481   1.880   3.843   1.950
  131EMI    C06 2482   1.537   3.939   1.971
  131EMI    H0F 2483   1.512   3.960   2.073
  131EMI    C0N 2484   1.484   4.052   1.880
  131EMI    H0O 2485   1.378   4.059   1.891
  131EMI    H0P 2486   1.530   4.144   1.909
  131EMI    H0Q 2487   1.509   4.030   1.778
  131EMI    N02 2488   1.683   3.928   1.956
  131EMI    H0E 2489   1.491   3.846   1.942
  132EMI    C01 2490   4.459   1.574   3.747
  132EMI    C04 2491   4.237   1.555   3.786
  132EMI    C03 2492   4.278   1.669   3.843
  132EMI    H07 2493   4.559   1.556   3.714
  132EMI    H09 2494   4.138   1.514   3.785
  132EMI    H08 2495   4.217   1.739   3.897
  132EMI    C05 2496   4.509   1.789   3.859
  132EMI    H0B 2497   4.589   1.801   3.789
  132EMI    H0C 2498   4.452   1.879   3.865
  132EMI    H0D 2499   4.550   1.766   3.956
  132EMI    N00 2500   4.421   1.679   3.816
  132EMI    C06 2501   4.361   1.369   3.651
  132EMI    H0F 2502   4.381   1.288   3.718
  132EMI    C0N 2503   4.225   1.345   3.582
  132EMI    H0O 2504   4.228   1.252   3.528
  132EMI    H0P 2505   4.148   1.340   3.656
  132EMI    H0Q 2506   4.205   1.425   3.514
  132EMI    N02 2507   4.357   1.496   3.725
  132EMI    H0E 2508   4.438   1.373   3.576
  133EMI    C01 2509   0.285   2.243   7.384
  133EMI    C04 2510   0.360   2.082   7.245
  133EMI    C03 2511   0.327   2.022   7.360
  133EMI    H07 2512   0.256   2.338   7.424
  133EMI    H09 2513   0.399   2.034   7.158
  133EMI    H08 2514   0.334   1.918   7.384
  133EMI    C05 2515   0.230   2.111   7.586
  133EMI    H0B 2516   0.157   2.186   7.608
  133EMI    H0C 2517   0.187   2.014   7.596
  133EMI    H0D 2518   0.312   2.121   7.654
  133EMI    N00 2519   0.278   2.129   7.448
  133EMI    C06 2520   0.354   2.329   7.163
  133EMI    H0F 2521   0.453   2.369   7.173
  133EMI    C0N 2522   0.336   2.269   7.022
  133EMI    H0O 2523   0.352   2.346   6.949
  133EMI    H0P 2524   0.407   2.191   7.007
  133EMI    H0Q 2525   0.237   2.230   7.012
  133EMI    N02 2526   0.332   2.224   7.264
  133EMI    H0E 2527   0.282   2.408   7.177
  134EMI    C01 2528   3.530   5.290   4.029
  134EMI    C04 2529   3.421   5.411   4.184
  134EMI    C03 2530   3.434   5.488   4.076
  134EMI    H07 2531   3.581   5.210   3.979
  134EMI    H09 2532   3.374   5.438   4.277
  134EMI    H08 2533   3.400   5.589   4.064
  134EMI    C05 2534   3.543   5.450   3.841
  134EMI    H0B 2535   3.544   5.365   3.776
  134EMI    H0C 2536   3.471   5.521   3.806
  134EMI    H0D 2537   3.640   5.495   3.844
  134EMI    N00 2538   3.506   5.407   3.977
  134EMI    C06 2539   3.494   5.167   4.241
  134EMI    H0F 2540   3.584   5.173   4.297
  134EMI    C0N 2541   3.373   5.166   4.336
  134EMI    H0O 2542   3.380   5.081   4.401
  134EMI    H0P 2543   3.373   5.255   4.395
  134EMI    H0Q 2544   3.283   5.159   4.280
  134EMI    N02 2545   3.484   5.283   4.151
  134EMI    H0E 2546   3.494   5.077   4.182
  135EMI    C01 2547   1.605   4.862   3.238
  135EMI    C04 2548   1.564   4.701   3.392
  135EMI    C03 2549   1.670   4.772   3.435
  135EMI    H07 2550   1.598   4.924   3.151
  135EMI    H09 2551   1.519   4.618   3.440
  135EMI    H08 2552   1.725   4.756   3.525
  135EMI    C05 2553   1.799   4.977   3.338
  135EMI    H0B 2554   1.766   5.065   3.287
  135EMI    H0C 2555   1.822   5.000   3.440
  135EMI    H0D 2556   1.887   4.939   3.290
  135EMI    N00 2557   1.693   4.875   3.333
  135EMI    C06 2558   1.413   4.717   3.180
  135EMI    H0F 2559   1.448   4.644   3.110
  135EMI    C0N 2560   1.303   4.656   3.268
  135EMI    H0O 2561   1.221   4.623   3.207
  135EMI    H0P 2562   1.343   4.572   3.322
  135EMI    H0Q 2563   1.268   4.729   3.338
  135EMI    N02 2564   1.524   4.762   3.264
  135EMI    H0E 2565   1.373   4.801   3.126
  136EMI    C01 2566   2.887   1.440   2.356
  136EMI    C04 2567   2.673   1.379   2.391
  136EMI    C03 2568   2.678   1.512   2.399
  136EMI    H07 2569   2.992   1.437   2.337
  136EMI    H09 2570   2.586   1.317   2.403
  136EMI    H08 2571   2.596   1.579   2.418
  136EMI    C05 2572   2.871   1.686   2.374
  136EMI    H0B 2573   2.955   1.691   2.308
  136EMI    H0C 2574   2.795   1.753   2.341
  136EMI    H0D 2575   2.902   1.713   2.473
  136EMI    N00 2576   2.818   1.549   2.375
  136EMI    C06 2577   2.853   1.195   2.347
  136EMI    H0F 2578   2.881   1.155   2.442
  136EMI    C0N 2579   2.737   1.112   2.289
  136EMI    H0O 2580   2.768   1.010   2.277
  136EMI    H0P 2581   2.653   1.116   2.356
  136EMI    H0Q 2582   2.708   1.152   2.194
  136EMI    N02 2583   2.810   1.335   2.364
  136EMI    H0E 2584   2.936   1.191   2.280
  137EMI    C01 2585   5.142   4.447   2.646
  137EMI    C04 2586   5.319   4.311   2.682
  137EMI    C03 2587   5.230   4.242   2.609
  137EMI    H07 2588   5.077   4.531   2.646
  137EMI    H09 2589   5.414   4.277   2.717
  137EMI    H08 2590   5.240   4.142   2.575
  137EMI    C05 2591   4.995   4.300   2.513
  137EMI    H0B 2592   4.955   4.389   2.468
  137EMI    H0C 2593   5.018   4.229   2.436
  137EMI    H0D 2594   4.922   4.259   2.579
  137EMI    N00 2595   5.117   4.333   2.588
  137EMI    C06 2596   5.321   4.554   2.779
  137EMI    H0F 2597   5.293   4.547   2.882
  137EMI    C0N 2598   5.475   4.544   2.767
  137EMI    H0O 2599   5.519   4.625   2.821
  137EMI    H0P 2600   5.508   4.451   2.807
  137EMI    H0Q 2601   5.503   4.551   2.663
  137EMI    N02 2602   5.260   4.443   2.704
  137EMI    H0E 2603   5.288   4.647   2.739
  138EMI    C01 2604   3.353   1.334   2.774
  138EMI    C04 2605   3.145   1.299   2.693
  138EMI    C03 2606   3.184   1.186   2.753
  138EMI    H07 2607   3.446   1.380   2.799
  138EMI    H09 2608   3.051   1.317   2.644
  138EMI    H08 2609   3.128   1.095   2.761
  138EMI    C05 2610   3.402   1.115   2.877
  138EMI    H0B 2611   3.467   1.168   2.945
  138EMI    H0C 2612   3.340   1.048   2.932
  138EMI    H0D 2613   3.462   1.060   2.808
  138EMI    N00 2614   3.319   1.212   2.804
  138EMI    C06 2615   3.259   1.531   2.658
  138EMI    H0F 2616   3.298   1.533   2.559
  138EMI    C0N 2617   3.115   1.588   2.657
  138EMI    H0O 2618   3.117   1.689   2.621
  138EMI    H0P 2619   3.054   1.528   2.593
  138EMI    H0Q 2620   3.075   1.587   2.756
  138EMI    N02 2621   3.256   1.393   2.708
  138EMI    H0E 2622   3.320   1.591   2.722
  139EMI    C01 2623   2.282   7.796   1.259
  139EMI    C04 2624   2.142   7.632   1.326
  139EMI    C03 2625   2.263   7.603   1.375
  139EMI    H07 2626   2.321   7.885   1.214
  139EMI    H09 2627   2.052   7.576   1.339
  139EMI    H08 2628   2.290   7.518   1.434
  139EMI    C05 2629   2.495   7.721   1.359
  139EMI    H0B 2630   2.523   7.825   1.363
  139EMI    H0C 2631   2.516   7.675   1.454
  139EMI    H0D 2632   2.551   7.672   1.282
  139EMI    N00 2633   2.352   7.711   1.330
  139EMI    C06 2634   2.050   7.829   1.181
  139EMI    H0F 2635   2.045   7.794   1.080
  139EMI    C0N 2636   1.915   7.802   1.251
  139EMI    H0O 2637   1.837   7.854   1.200
  139EMI    H0P 2638   1.895   7.697   1.251
  139EMI    H0Q 2639   1.920   7.837   1.352
  139EMI    N02 2640   2.157   7.758   1.252
  139EMI    H0E 2641   2.070   7.934   1.181
  140EMI    C01 2642   0.257   2.048   6.488
  140EMI    C04 2643   0.408   2.152   6.357
  140EMI    C03 2644   0.410   2.213   6.476
  140EMI    H07 2645   0.181   1.981   6.523
  140EMI    H09 2646   0.468   2.176   6.272
  140EMI    H08 2647   0.471   2.296   6.505
  140EMI    C05 2648   0.278   2.175   6.698
  140EMI    H0B 2649   0.247   2.087   6.749
  140EMI    H0C 2650   0.364   2.216   6.747
  140EMI    H0D 2651   0.198   2.247   6.700
  140EMI    N00 2652   0.311   2.143   6.559
  140EMI    C06 2653   0.272   1.952   6.260
  140EMI    H0F 2654   0.192   1.993   6.203
  140EMI    C0N 2655   0.394   1.928   6.169
  140EMI    H0O 2656   0.367   1.859   6.091
  140EMI    H0P 2657   0.425   2.021   6.126
  140EMI    H0Q 2658   0.474   1.886   6.227
  140EMI    N02 2659   0.308   2.045   6.367
  140EMI    H0E 2660   0.241   1.859   6.303
  141EMI    C01 2661   5.795   2.506   0.707
  141EMI    C04 2662   5.829   2.299   0.791
  141EMI    C03 2663   5.928   2.323   0.705
  141EMI    H07 2664   5.754   2.602   0.687
  141EMI    H09 2665   5.814   2.210   0.849
  141EMI    H08 2666   6.009   2.257   0.680
  141EMI    C05 2667   5.988   2.527   0.553
  141EMI    H0B 2668   5.982   2.632   0.570
  141EMI    H0C 2669   6.089   2.494   0.564
  141EMI    H0D 2670   5.953   2.505   0.455
  141EMI    N00 2671   5.904   2.458   0.652
  141EMI    C06 2672   5.623   2.438   0.871
  141EMI    H0F 2673   5.538   2.404   0.815
  141EMI    C0N 2674   5.634   2.359   1.002
  141EMI    H0O 2675   5.545   2.373   1.060
  141EMI    H0P 2676   5.646   2.255   0.980
  141EMI    H0Q 2677   5.719   2.393   1.057
  141EMI    N02 2678   5.744   2.419   0.790
  141EMI    H0E 2679   5.611   2.542   0.893
  142EMI    C01 2680   6.722   4.732   3.601
  142EMI    C04 2681   6.550   4.587   3.613
  142EMI    C03 2682   6.661   4.519   3.644
  142EMI    H07 2683   6.780   4.821   3.588
  142EMI    H09 2684   6.450   4.548   3.608
  142EMI    H08 2685   6.668   4.415   3.670
  142EMI    C05 2686   6.912   4.587   3.663
  142EMI    H0B 2687   6.960   4.675   3.700
  142EMI    H0C 2688   6.920   4.508   3.735
  142EMI    H0D 2689   6.960   4.556   3.572
  142EMI    N00 2690   6.771   4.616   3.636
  142EMI    C06 2691   6.504   4.835   3.546
  142EMI    H0F 2692   6.496   4.838   3.439
  142EMI    C0N 2693   6.365   4.813   3.607
  142EMI    H0O 2694   6.300   4.894   3.579
  142EMI    H0P 2695   6.324   4.721   3.572
  142EMI    H0Q 2696   6.373   4.810   3.714
  142EMI    N02 2697   6.593   4.724   3.585
  142EMI    H0E 2698   6.545   4.927   3.582
  143EMI    C01 2699   2.109   0.859   2.213
  143EMI    C04 2700   2.212   1.048   2.282
  143EMI    C03 2701   2.082   1.076   2.269
  143EMI    H07 2702   2.091   0.758   2.182
  143EMI    H09 2703   2.289   1.115   2.314
  143EMI    H08 2704   2.034   1.170   2.287
  143EMI    C05 2705   1.875   0.935   2.196
  143EMI    H0B 2706   1.847   0.833   2.216
  143EMI    H0C 2707   1.818   1.001   2.257
  143EMI    H0D 2708   1.856   0.957   2.093
  143EMI    N00 2709   2.018   0.952   2.224
  143EMI    C06 2710   2.353   0.832   2.246
  143EMI    H0F 2711   2.400   0.840   2.150
  143EMI    C0N 2712   2.447   0.889   2.353
  143EMI    H0O 2713   2.539   0.835   2.353
  143EMI    H0P 2714   2.467   0.992   2.332
  143EMI    H0Q 2715   2.401   0.881   2.450
  143EMI    N02 2716   2.227   0.907   2.246
  143EMI    H0E 2717   2.333   0.729   2.267
  144EMI    C01 2718   3.590   6.370   2.637
  144EMI    C04 2719   3.654   6.407   2.850
  144EMI    C03 2720   3.591   6.517   2.809
  144EMI    H07 2721   3.574   6.325   2.542
  144EMI    H09 2722   3.698   6.390   2.947
  144EMI    H08 2723   3.574   6.607   2.865
  144EMI    C05 2724   3.478   6.584   2.583
  144EMI    H0B 2725   3.418   6.528   2.514
  144EMI    H0C 2726   3.415   6.647   2.643
  144EMI    H0D 2727   3.548   6.644   2.529
  144EMI    N00 2728   3.551   6.491   2.670
  144EMI    C06 2729   3.710   6.179   2.737
  144EMI    H0F 2730   3.812   6.184   2.704
  144EMI    C0N 2731   3.705   6.120   2.879
  144EMI    H0O 2732   3.748   6.022   2.878
  144EMI    H0P 2733   3.761   6.183   2.945
  144EMI    H0Q 2734   3.604   6.115   2.912
  144EMI    N02 2735   3.652   6.314   2.737
  144EMI    H0E 2736   3.654   6.116   2.670
  145EMI    C01 2737   3.166   6.317   5.941
  145EMI    C04 2738   3.336   6.188   5.869
  145EMI    C03 2739   3.223   6.130   5.829
  145EMI    H07 2740   3.109   6.396   5.987
  145EMI    H09 2741   3.436   6.154   5.851
  145EMI    H08 2742   3.214   6.039   5.773
  145EMI    C05 2743   2.971   6.191   5.856
  145EMI    H0B 2744   2.919   6.285   5.852
  145EMI    H0C 2745   2.956   6.139   5.764
  145EMI    H0D 2746   2.933   6.133   5.937
  145EMI    N00 2747   3.114   6.216   5.877
  145EMI    C06 2748   3.388   6.406   6.004
  145EMI    H0F 2749   3.407   6.377   6.105
  145EMI    C0N 2750   3.520   6.409   5.926
  145EMI    H0O 2751   3.587   6.479   5.971
  145EMI    H0P 2752   3.565   6.312   5.927
  145EMI    H0Q 2753   3.502   6.438   5.824
  145EMI    N02 2754   3.296   6.309   5.941
  145EMI    H0E 2755   3.343   6.503   6.002
  146EMI    C01 2756   1.866   6.778   0.256
  146EMI    C04 2757   1.843   6.776   0.481
  146EMI    C03 2758   1.871   6.902   0.445
  146EMI    H07 2759   1.870   6.747   0.154
  146EMI    H09 2760   1.826   6.739   0.580
  146EMI    H08 2761   1.881   6.986   0.510
  146EMI    C05 2762   1.916   7.016   0.215
  146EMI    H0B 2763   1.872   7.003   0.118
  146EMI    H0C 2764   1.877   7.104   0.261
  146EMI    H0D 2765   2.022   7.025   0.204
  146EMI    N00 2766   1.885   6.900   0.299
  146EMI    C06 2767   1.813   6.554   0.347
  146EMI    H0F 2768   1.905   6.500   0.354
  146EMI    C0N 2769   1.719   6.511   0.461
  146EMI    H0O 2770   1.700   6.406   0.454
  146EMI    H0P 2771   1.766   6.532   0.555
  146EMI    H0Q 2772   1.627   6.565   0.454
  146EMI    N02 2773   1.840   6.698   0.357
  146EMI    H0E 2774   1.767   6.533   0.253
  147EMI    C01 2775   0.424   7.577   6.329
  147EMI    C04 2776   0.540   7.388   6.367
  147EMI    C03 2777   0.626   7.489   6.377
  147EMI    H07 2778   0.345   7.646   6.307
  147EMI    H09 2779   0.562   7.283   6.379
  147EMI    H08 2780   0.730   7.484   6.400
  147EMI    C05 2781   0.600   7.748   6.353
  147EMI    H0B 2782   0.523   7.816   6.384
  147EMI    H0C 2783   0.682   7.754   6.422
  147EMI    H0D 2784   0.633   7.774   6.255
  147EMI    N00 2785   0.548   7.611   6.352
  147EMI    C06 2786   0.285   7.373   6.315
  147EMI    H0F 2787   0.275   7.348   6.211
  147EMI    C0N 2788   0.287   7.244   6.399
  147EMI    H0O 2789   0.195   7.190   6.383
  147EMI    H0P 2790   0.369   7.183   6.369
  147EMI    H0Q 2791   0.296   7.269   6.502
  147EMI    N02 2792   0.410   7.447   6.335
  147EMI    H0E 2793   0.202   7.434   6.345
  148EMI    C01 2794   3.212   2.740   6.047
  148EMI    C04 2795   3.095   2.550   6.017
  148EMI    C03 2796   3.055   2.636   5.923
  148EMI    H07 2797   3.281   2.813   6.085
  148EMI    H09 2798   3.059   2.450   6.032
  148EMI    H08 2799   2.981   2.620   5.848
  148EMI    C05 2800   3.123   2.882   5.865
  148EMI    H0B 2801   3.217   2.932   5.864
  148EMI    H0C 2802   3.095   2.857   5.765
  148EMI    H0D 2803   3.049   2.946   5.908
  148EMI    N00 2804   3.133   2.759   5.945
  148EMI    C06 2805   3.269   2.564   6.210
  148EMI    H0F 2806   3.216   2.585   6.300
  148EMI    C0N 2807   3.283   2.412   6.193
  148EMI    H0O 2808   3.336   2.371   6.277
  148EMI    H0P 2809   3.186   2.368   6.188
  148EMI    H0Q 2810   3.337   2.391   6.103
  148EMI    N02 2811   3.197   2.620   6.095
  148EMI    H0E 2812   3.367   2.608   6.216
  149EMI    C01 2813   4.175   6.924   1.782
  149EMI    C04 2814   4.385   6.982   1.723
  149EMI    C03 2815   4.351   7.058   1.828
  149EMI    H07 2816   4.079   6.876   1.786
  149EMI    H09 2817   4.478   6.984   1.670
  149EMI    H08 2818   4.411   7.133   1.875
  149EMI    C05 2819   4.135   7.075   1.974
  149EMI    H0B 2820   4.068   7.000   2.012
  149EMI    H0C 2821   4.201   7.107   2.052
  149EMI    H0D 2822   4.079   7.158   1.938
  149EMI    N00 2823   4.215   7.018   1.864
  149EMI    C06 2824   4.260   6.796   1.589
  149EMI    H0F 2825   4.221   6.842   1.500
  149EMI    C0N 2826   4.401   6.740   1.560
  149EMI    H0O 2827   4.395   6.667   1.482
  149EMI    H0P 2828   4.466   6.819   1.529
  149EMI    H0Q 2829   4.440   6.694   1.648
  149EMI    N02 2830   4.269   6.897   1.696
  149EMI    H0E 2831   4.196   6.717   1.620
  150EMI    C01 2832   3.138   3.672   1.755
  150EMI    C04 2833   3.105   3.449   1.759
  150EMI    C03 2834   3.204   3.475   1.844
  150EMI    H07 2835   3.130   3.776   1.732
  150EMI    H09 2836   3.063   3.353   1.736
  150EMI    H08 2837   3.258   3.405   1.903
  150EMI    C05 2838   3.323   3.696   1.918
  150EMI    H0B 2839   3.285   3.794   1.937
  150EMI    H0C 2840   3.341   3.645   2.010
  150EMI    H0D 2841   3.414   3.703   1.862
  150EMI    N00 2842   3.224   3.620   1.840
  150EMI    C06 2843   2.957   3.599   1.604
  150EMI    H0F 2844   2.998   3.592   1.505
  150EMI    C0N 2845   2.849   3.490   1.621
  150EMI    H0O 2846   2.772   3.505   1.549
  150EMI    H0P 2847   2.893   3.394   1.607
  150EMI    H0Q 2848   2.808   3.497   1.720
  150EMI    N02 2849   3.064   3.578   1.703
  150EMI    H0E 2850   2.913   3.695   1.618
  151EMI    C01 2851   7.694   7.260   5.067
  151EMI    C04 2852   7.828   7.202   5.239
  151EMI    C03 2853   7.744   7.296   5.284
  151EMI    H07 2854   7.649   7.266   4.970
  151EMI    H09 2855   7.905   7.153   5.294
  151EMI    H08 2856   7.740   7.337   5.383
  151EMI    C05 2857   7.550   7.431   5.173
  151EMI    H0B 2858   7.475   7.403   5.102
  151EMI    H0C 2859   7.508   7.436   5.271
  151EMI    H0D 2860   7.590   7.527   5.146
  151EMI    N00 2861   7.658   7.332   5.170
  151EMI    C06 2862   7.860   7.087   5.007
  151EMI    H0F 2863   7.941   7.136   4.958
  151EMI    C0N 2864   7.912   6.966   5.087
  151EMI    H0O 2865   7.961   6.898   5.021
  151EMI    H0P 2866   7.983   7.001   5.160
  151EMI    H0Q 2867   7.831   6.917   5.136
  151EMI    N02 2868   7.793   7.181   5.098
  151EMI    H0E 2869   7.789   7.053   4.934
  152EMI    C01 2870   5.026   6.274   4.801
  152EMI    C04 2871   5.248   6.251   4.839
  152EMI    C03 2872   5.233   6.284   4.710
  152EMI    H07 2873   4.920   6.276   4.813
  152EMI    H09 2874   5.339   6.232   4.890
  152EMI    H08 2875   5.310   6.298   4.638
  152EMI    C05 2876   5.024   6.335   4.561
  152EMI    H0B 2877   4.933   6.388   4.581
  152EMI    H0C 2878   5.090   6.398   4.505
  152EMI    H0D 2879   5.003   6.246   4.505
  152EMI    N00 2880   5.088   6.299   4.688
  152EMI    C06 2881   5.079   6.210   5.034
  152EMI    H0F 2882   5.065   6.105   5.042
  152EMI    C0N 2883   5.193   6.255   5.127
  152EMI    H0O 2884   5.169   6.230   5.228
  152EMI    H0P 2885   5.283   6.205   5.098
  152EMI    H0Q 2886   5.207   6.361   5.118
  152EMI    N02 2887   5.112   6.244   4.895
  152EMI    H0E 2888   4.989   6.261   5.062
  153EMI    C01 2889   0.505   6.833   7.169
  153EMI    C04 2890   0.289   6.868   7.226
  153EMI    C03 2891   0.291   6.770   7.135
  153EMI    H07 2892   0.611   6.840   7.164
  153EMI    H09 2893   0.203   6.910   7.274
  153EMI    H08 2894   0.206   6.717   7.096
  153EMI    C05 2895   0.482   6.650   7.004
  153EMI    H0B 2896   0.581   6.619   7.033
  153EMI    H0C 2897   0.417   6.566   7.002
  153EMI    H0D 2898   0.487   6.694   6.907
  153EMI    N00 2899   0.432   6.749   7.100
  153EMI    C06 2900   0.476   7.012   7.337
  153EMI    H0F 2901   0.480   7.106   7.285
  153EMI    C0N 2902   0.380   7.023   7.457
  153EMI    H0O 2903   0.415   7.100   7.523
  153EMI    H0P 2904   0.282   7.048   7.422
  153EMI    H0Q 2905   0.377   6.929   7.509
  153EMI    N02 2906   0.429   6.907   7.246
  153EMI    H0E 2907   0.574   6.987   7.372
  154EMI    C01 2908   1.952   0.772   5.539
  154EMI    C04 2909   1.743   0.690   5.565
  154EMI    C03 2910   1.732   0.809   5.505
  154EMI    H07 2911   2.058   0.783   5.541
  154EMI    H09 2912   1.663   0.624   5.593
  154EMI    H08 2913   1.641   0.857   5.474
  154EMI    C05 2914   1.906   0.988   5.428
  154EMI    H0B 2915   2.002   0.979   5.382
  154EMI    H0C 2916   1.834   1.014   5.353
  154EMI    H0D 2917   1.909   1.064   5.502
  154EMI    N00 2918   1.868   0.860   5.489
  154EMI    C06 2919   1.947   0.551   5.650
  154EMI    H0F 2920   1.955   0.567   5.755
  154EMI    C0N 2921   1.858   0.428   5.624
  154EMI    H0O 2922   1.902   0.342   5.670
  154EMI    H0P 2923   1.761   0.444   5.665
  154EMI    H0Q 2924   1.850   0.411   5.519
  154EMI    N02 2925   1.886   0.669   5.586
  154EMI    H0E 2926   2.044   0.534   5.608
  155EMI    C01 2927   0.988   0.984   0.896
  155EMI    C04 2928   1.054   0.873   0.711
  155EMI    C03 2929   0.925   0.843   0.731
  155EMI    H07 2930   0.987   1.047   0.982
  155EMI    H09 2931   1.116   0.837   0.632
  155EMI    H08 2932   0.863   0.778   0.672
  155EMI    C05 2933   0.751   0.915   0.913
  155EMI    H0B 2934   0.733   1.008   0.961
  155EMI    H0C 2935   0.678   0.899   0.837
  155EMI    H0D 2936   0.746   0.836   0.985
  155EMI    N00 2937   0.885   0.917   0.852
  155EMI    C06 2938   1.225   1.024   0.837
  155EMI    H0F 2939   1.284   0.960   0.899
  155EMI    C0N 2940   1.293   1.041   0.700
  155EMI    H0O 2941   1.390   1.085   0.713
  155EMI    H0P 2942   1.303   0.945   0.653
  155EMI    H0Q 2943   1.233   1.105   0.638
  155EMI    N02 2944   1.092   0.964   0.819
  155EMI    H0E 2945   1.215   1.119   0.884
  156EMI    C01 2946   3.406   2.868   6.961
  156EMI    C04 2947   3.380   2.866   7.186
  156EMI    C03 2948   3.476   2.778   7.156
  156EMI    H07 2949   3.394   2.891   6.857
  156EMI    H09 2950   3.342   2.890   7.283
  156EMI    H08 2951   3.532   2.718   7.225
  156EMI    C05 2952   3.585   2.701   6.932
  156EMI    H0B 2953   3.613   2.755   6.844
  156EMI    H0C 2954   3.673   2.681   6.991
  156EMI    H0D 2955   3.539   2.609   6.904
  156EMI    N00 2956   3.491   2.782   7.010
  156EMI    C06 2957   3.231   3.024   7.040
  156EMI    H0F 2958   3.137   2.976   7.028
  156EMI    C0N 2959   3.226   3.115   7.165
  156EMI    H0O 2960   3.150   3.189   7.152
  156EMI    H0P 2961   3.205   3.055   7.251
  156EMI    H0Q 2962   3.321   3.163   7.178
  156EMI    N02 2963   3.336   2.923   7.058
  156EMI    H0E 2964   3.253   3.084   6.954
  157EMI    C01 2965   0.671   7.472   3.347
  157EMI    C04 2966   0.673   7.662   3.469
  157EMI    C03 2967   0.585   7.579   3.526
  157EMI    H07 2968   0.692   7.399   3.272
  157EMI    H09 2969   0.698   7.761   3.501
  157EMI    H08 2970   0.526   7.598   3.613
  157EMI    C05 2971   0.505   7.337   3.470
  157EMI    H0B 2972   0.558   7.250   3.434
  157EMI    H0C 2973   0.487   7.327   3.574
  157EMI    H0D 2974   0.412   7.345   3.418
  157EMI    N00 2975   0.586   7.457   3.445
  157EMI    C06 2976   0.827   7.643   3.259
  157EMI    H0F 2977   0.778   7.694   3.179
  157EMI    C0N 2978   0.920   7.742   3.333
  157EMI    H0O 2979   0.993   7.780   3.265
  157EMI    H0P 2980   0.861   7.823   3.372
  157EMI    H0Q 2981   0.969   7.691   3.414
  157EMI    N02 2982   0.727   7.591   3.353
  157EMI    H0E 2983   0.886   7.562   3.221
  158EMI    C01 2984   2.754   7.534   6.181
  158EMI    C04 2985   2.898   7.655   6.306
  158EMI    C03 2986   2.829   7.577   6.390
  158EMI    H07 2987   2.700   7.493   6.098
  158EMI    H09 2988   2.975   7.725   6.331
  158EMI    H08 2989   2.838   7.573   6.496
  158EMI    C05 2990   2.639   7.401   6.355
  158EMI    H0B 2991   2.624   7.326   6.280
  158EMI    H0C 2992   2.677   7.355   6.444
  158EMI    H0D 2993   2.546   7.449   6.376
  158EMI    N00 2994   2.736   7.500   6.306
  158EMI    C06 2995   2.895   7.686   6.046
  158EMI    H0F 2996   2.837   7.773   6.026
  158EMI    C0N 2997   3.043   7.725   6.061
  158EMI    H0O 2998   3.077   7.769   5.970
  158EMI    H0P 2999   3.054   7.795   6.141
  158EMI    H0Q 3000   3.101   7.637   6.082
  158EMI    N02 3001   2.848   7.624   6.171
  158EMI    H0E 3002   2.884   7.616   5.966
  159EMI    C01 3003   5.752   1.207   2.714
  159EMI    C04 3004   5.937   1.333   2.685
  159EMI    C03 3005   5.967   1.210   2.644
  159EMI    H07 3006   5.653   1.175   2.739
  159EMI    H09 3007   6.002   1.419   2.684
  159EMI    H08 3008   6.060   1.176   2.605
  159EMI    C05 3009   5.831   0.987   2.633
  159EMI    H0B 3010   5.729   0.966   2.607
  159EMI    H0C 3011   5.895   0.961   2.551
  159EMI    H0D 3012   5.858   0.929   2.719
  159EMI    N00 3013   5.845   1.130   2.664
  159EMI    C06 3014   5.721   1.442   2.783
  159EMI    H0F 3015   5.733   1.446   2.889
  159EMI    C0N 3016   5.772   1.573   2.720
  159EMI    H0O 3017   5.716   1.655   2.759
  159EMI    H0P 3018   5.876   1.586   2.744
  159EMI    H0Q 3019   5.760   1.569   2.614
  159EMI    N02 3020   5.797   1.329   2.729
  159EMI    H0E 3021   5.617   1.429   2.759
  160EMI    C01 3022   6.747   6.343   0.253
  160EMI    C04 3023   6.614   6.521   0.297
  160EMI    C03 3024   6.540   6.411   0.313
  160EMI    H07 3025   6.831   6.283   0.227
  160EMI    H09 3026   6.583   6.622   0.310
  160EMI    H08 3027   6.437   6.406   0.342
  160EMI    C05 3028   6.590   6.156   0.288
  160EMI    H0B 3029   6.675   6.097   0.314
  160EMI    H0C 3030   6.513   6.142   0.361
  160EMI    H0D 3031   6.554   6.126   0.192
  160EMI    N00 3032   6.628   6.298   0.284
  160EMI    C06 3033   6.864   6.560   0.230
  160EMI    H0F 3034   6.865   6.585   0.126
  160EMI    C0N 3035   6.854   6.689   0.313
  160EMI    H0O 3036   6.938   6.752   0.293
  160EMI    H0P 3037   6.764   6.741   0.288
  160EMI    H0Q 3038   6.853   6.664   0.417
  160EMI    N02 3039   6.748   6.474   0.258
  160EMI    H0E 3040   6.954   6.508   0.255
  161EMI    C01 3041   4.109   0.436   7.436
  161EMI    C04 3042   4.053   0.639   7.518
  161EMI    C03 3043   3.942   0.565   7.518
  161EMI    H07 3044   4.164   0.354   7.396
  161EMI    H09 3045   4.062   0.741   7.550
  161EMI    H08 3046   3.845   0.595   7.550
  161EMI    C05 3047   3.891   0.319   7.447
  161EMI    H0B 3048   3.947   0.228   7.458
  161EMI    H0C 3049   3.813   0.322   7.520
  161EMI    H0D 3050   3.848   0.322   7.349
  161EMI    N00 3051   3.981   0.434   7.465
  161EMI    C06 3052   4.300   0.592   7.445
  161EMI    H0F 3053   4.312   0.633   7.347
  161EMI    C0N 3054   4.338   0.698   7.551
  161EMI    H0O 3055   4.440   0.727   7.537
  161EMI    H0P 3056   4.275   0.784   7.539
  161EMI    H0Q 3057   4.325   0.657   7.649
  161EMI    N02 3058   4.159   0.553   7.464
  161EMI    H0E 3059   4.362   0.507   7.457
  162EMI    C01 3060   5.171   1.939   1.157
  162EMI    C04 3061   4.998   2.082   1.135
  162EMI    C03 3062   5.106   2.155   1.163
  162EMI    H07 3063   5.230   1.849   1.161
  162EMI    H09 3064   4.898   2.118   1.119
  162EMI    H08 3065   5.111   2.261   1.173
  162EMI    C05 3066   5.356   2.094   1.208
  162EMI    H0B 3067   5.421   2.022   1.163
  162EMI    H0C 3068   5.378   2.191   1.169
  162EMI    H0D 3069   5.370   2.094   1.314
  162EMI    N00 3070   5.217   2.059   1.177
  162EMI    C06 3071   4.957   1.825   1.105
  162EMI    H0F 3072   4.917   1.789   1.197
  162EMI    C0N 3073   4.842   1.867   1.012
  162EMI    H0O 3074   4.780   1.782   0.992
  162EMI    H0P 3075   4.784   1.943   1.058
  162EMI    H0Q 3076   4.882   1.904   0.920
  162EMI    N02 3077   5.042   1.942   1.132
  162EMI    H0E 3078   5.015   1.749   1.059
  163EMI    C01 3079   1.045   7.005   7.340
  163EMI    C04 3080   0.969   7.136   7.506
  163EMI    C03 3081   0.961   7.010   7.549
  163EMI    H07 3082   1.084   6.971   7.246
  163EMI    H09 3083   0.942   7.225   7.561
  163EMI    H08 3084   0.926   6.976   7.644
  163EMI    C05 3085   1.021   6.780   7.441
  163EMI    H0B 3086   1.102   6.749   7.378
  163EMI    H0C 3087   1.038   6.747   7.540
  163EMI    H0D 3088   0.929   6.738   7.404
  163EMI    N00 3089   1.011   6.927   7.439
  163EMI    C06 3090   1.050   7.245   7.283
  163EMI    H0F 3091   0.963   7.267   7.225
  163EMI    C0N 3092   1.086   7.368   7.369
  163EMI    H0O 3093   1.105   7.452   7.306
  163EMI    H0P 3094   1.004   7.390   7.435
  163EMI    H0Q 3095   1.173   7.347   7.428
  163EMI    N02 3096   1.024   7.130   7.370
  163EMI    H0E 3097   1.132   7.223   7.218
  164EMI    C01 3098   6.050   4.803   0.307
  164EMI    C04 3099   6.186   4.897   0.461
  164EMI    C03 3100   6.080   4.847   0.526
  164EMI    H07 3101   6.009   4.769   0.214
  164EMI    H09 3102   6.270   4.948   0.503
  164EMI    H08 3103   6.062   4.851   0.631
  164EMI    C05 3104   5.866   4.720   0.449
  164EMI    H0B 3105   5.850   4.644   0.375
  164EMI    H0C 3106   5.867   4.676   0.546
  164EMI    H0D 3107   5.786   4.792   0.444
  164EMI    N00 3108   5.994   4.787   0.424
  164EMI    C06 3109   6.254   4.902   0.209
  164EMI    H0F 3110   6.228   4.999   0.171
  164EMI    C0N 3111   6.399   4.905   0.260
  164EMI    H0O 3112   6.465   4.931   0.180
  164EMI    H0P 3113   6.408   4.977   0.338
  164EMI    H0Q 3114   6.425   4.808   0.298
  164EMI    N02 3115   6.164   4.867   0.319
  164EMI    H0E 3116   6.245   4.830   0.131
  165EMI    C01 3117   4.675   6.900   5.389
  165EMI    C04 3118   4.844   6.763   5.331
  165EMI    C03 3119   4.792   6.811   5.217
  165EMI    H07 3120   4.603   6.956   5.446
  165EMI    H09 3121   4.926   6.694   5.340
  165EMI    H08 3122   4.824   6.790   5.117
  165EMI    C05 3123   4.596   6.976   5.167
  165EMI    H0B 3124   4.563   7.066   5.216
  165EMI    H0C 3125   4.650   7.001   5.078
  165EMI    H0D 3126   4.510   6.917   5.141
  165EMI    N00 3127   4.683   6.900   5.258
  165EMI    C06 3128   4.787   6.797   5.583
  165EMI    H0F 3129   4.728   6.713   5.614
  165EMI    C0N 3130   4.936   6.767   5.609
  165EMI    H0O 3131   4.952   6.749   5.713
  165EMI    H0P 3132   4.965   6.681   5.553
  165EMI    H0Q 3133   4.995   6.851   5.577
  165EMI    N02 3134   4.766   6.822   5.440
  165EMI    H0E 3135   4.759   6.884   5.639
  166EMI    C01 3136   7.558   5.181   1.641
  166EMI    C04 3137   7.392   5.328   1.681
  166EMI    C03 3138   7.500   5.399   1.647
  166EMI    H07 3139   7.614   5.090   1.631
  166EMI    H09 3140   7.295   5.366   1.706
  166EMI    H08 3141   7.507   5.505   1.639
  166EMI    C05 3142   7.744   5.332   1.581
  166EMI    H0B 3143   7.783   5.252   1.522
  166EMI    H0C 3144   7.744   5.423   1.524
  166EMI    H0D 3145   7.804   5.345   1.669
  166EMI    N00 3146   7.606   5.301   1.622
  166EMI    C06 3147   7.346   5.072   1.707
  166EMI    H0F 3148   7.352   5.049   1.811
  166EMI    C0N 3149   7.200   5.106   1.671
  166EMI    H0O 3150   7.137   5.023   1.693
  166EMI    H0P 3151   7.168   5.191   1.728
  166EMI    H0Q 3152   7.194   5.129   1.566
  166EMI    N02 3153   7.432   5.187   1.677
  166EMI    H0E 3154   7.378   4.987   1.650
  167EMI    C01 3155   1.179   6.932   5.830
  167EMI    C04 3156   1.276   6.740   5.898
  167EMI    C03 3157   1.147   6.713   5.874
  167EMI    H07 3158   1.163   7.034   5.803
  167EMI    H09 3159   1.351   6.671   5.932
  167EMI    H08 3160   1.098   6.619   5.885
  167EMI    C05 3161   0.946   6.859   5.793
  167EMI    H0B 3162   0.939   6.937   5.720
  167EMI    H0C 3163   0.907   6.768   5.752
  167EMI    H0D 3164   0.890   6.886   5.879
  167EMI    N00 3165   1.087   6.840   5.830
  167EMI    C06 3166   1.420   6.957   5.881
  167EMI    H0F 3167   1.428   6.997   5.980
  167EMI    C0N 3168   1.538   6.862   5.854
  167EMI    H0O 3169   1.630   6.916   5.863
  167EMI    H0P 3170   1.537   6.782   5.926
  167EMI    H0Q 3171   1.530   6.822   5.756
  167EMI    N02 3172   1.294   6.882   5.869
  167EMI    H0E 3173   1.421   7.036   5.809
  168EMI    C01 3174   2.260   1.568   4.524
  168EMI    C04 3175   2.237   1.463   4.723
  168EMI    C03 3176   2.216   1.594   4.744
  168EMI    H07 3177   2.276   1.587   4.420
  168EMI    H09 3178   2.235   1.385   4.796
  168EMI    H08 3179   2.192   1.641   4.837
  168EMI    C05 3180   2.216   1.803   4.588
  168EMI    H0B 3181   2.180   1.817   4.488
  168EMI    H0C 3182   2.146   1.844   4.657
  168EMI    H0D 3183   2.310   1.851   4.599
  168EMI    N00 3184   2.231   1.659   4.614
  168EMI    C06 3185   2.296   1.324   4.510
  168EMI    H0F 3186   2.401   1.307   4.511
  168EMI    C0N 3187   2.224   1.207   4.581
  168EMI    H0O 3188   2.246   1.116   4.531
  168EMI    H0P 3189   2.258   1.201   4.683
  168EMI    H0Q 3190   2.119   1.224   4.580
  168EMI    N02 3191   2.266   1.450   4.580
  168EMI    H0E 3192   2.262   1.330   4.409
  169EMI    C01 3193   6.361   2.297   6.755
  169EMI    C04 3194   6.193   2.345   6.611
  169EMI    C03 3195   6.246   2.228   6.573
  169EMI    H07 3196   6.430   2.302   6.836
  169EMI    H09 3197   6.112   2.397   6.565
  169EMI    H08 3198   6.216   2.168   6.490
  169EMI    C05 3199   6.441   2.081   6.665
  169EMI    H0B 3200   6.472   2.058   6.765
  169EMI    H0C 3201   6.387   1.999   6.624
  169EMI    H0D 3202   6.527   2.102   6.605
  169EMI    N00 3203   6.354   2.200   6.668
  169EMI    C06 3204   6.247   2.511   6.806
  169EMI    H0F 3205   6.306   2.590   6.765
  169EMI    C0N 3206   6.098   2.550   6.798
  169EMI    H0O 3207   6.082   2.639   6.854
  169EMI    H0P 3208   6.071   2.566   6.696
  169EMI    H0Q 3209   6.038   2.471   6.839
  169EMI    N02 3210   6.269   2.387   6.729
  169EMI    H0E 3211   6.274   2.494   6.908
  170EMI    C01 3212   2.858   4.195   1.745
  170EMI    C04 3213   2.980   4.270   1.570
  170EMI    C03 3214   2.921   4.377   1.625
  170EMI    H07 3215   2.813   4.132   1.818
  170EMI    H09 3216   3.045   4.270   1.485
  170EMI    H08 3217   2.929   4.478   1.593
  170EMI    C05 3218   2.760   4.406   1.829
  170EMI    H0B 3219   2.758   4.360   1.925
  170EMI    H0C 3220   2.802   4.504   1.837
  170EMI    H0D 3221   2.660   4.413   1.790
  170EMI    N00 3222   2.843   4.325   1.738
  170EMI    C06 3223   2.979   4.015   1.626
  170EMI    H0F 3224   2.909   3.968   1.559
  170EMI    C0N 3225   3.119   4.013   1.563
  170EMI    H0O 3226   3.149   3.911   1.546
  170EMI    H0P 3227   3.118   4.066   1.470
  170EMI    H0Q 3228   3.189   4.059   1.630
  170EMI    N02 3229   2.938   4.154   1.650
  170EMI    H0E 3230   2.980   3.962   1.719
  171EMI    C01 3231   2.593   2.302   4.801
  171EMI    C04 3232   2.658   2.101   4.721
  171EMI    C03 3233   2.525   2.106   4.710
  171EMI    H07 3234   2.593   2.400   4.844
  171EMI    H09 3235   2.722   2.020   4.692
  171EMI    H08 3236   2.460   2.030   4.671
  171EMI    C05 3237   2.347   2.288   4.772
  171EMI    H0B 3238   2.348   2.394   4.763
  171EMI    H0C 3239   2.289   2.245   4.693
  171EMI    H0D 3240   2.305   2.260   4.866
  171EMI    N00 3241   2.485   2.237   4.763
  171EMI    C06 3242   2.837   2.269   4.810
  171EMI    H0F 3243   2.862   2.239   4.910
  171EMI    C0N 3244   2.933   2.201   4.711
  171EMI    H0O 3245   3.034   2.230   4.733
  171EMI    H0P 3246   2.924   2.095   4.719
  171EMI    H0Q 3247   2.909   2.231   4.611
  171EMI    N02 3248   2.699   2.229   4.780
  171EMI    H0E 3249   2.846   2.375   4.802
  172EMI    C01 3250   1.067   0.793   5.764
  172EMI    C04 3251   1.269   0.822   5.665
  172EMI    C03 3252   1.263   0.695   5.708
  172EMI    H07 3253   0.969   0.810   5.802
  172EMI    H09 3254   1.350   0.869   5.615
  172EMI    H08 3255   1.339   0.620   5.698
  172EMI    C05 3256   1.081   0.556   5.833
  172EMI    H0B 3257   0.974   0.553   5.823
  172EMI    H0C 3258   1.123   0.471   5.783
  172EMI    H0D 3259   1.107   0.554   5.936
  172EMI    N00 3260   1.132   0.679   5.771
  172EMI    C06 3261   1.101   1.022   5.677
  172EMI    H0F 3262   1.131   1.083   5.759
  172EMI    C0N 3263   1.170   1.071   5.548
  172EMI    H0O 3264   1.141   1.172   5.529
  172EMI    H0P 3265   1.276   1.066   5.560
  172EMI    H0Q 3266   1.140   1.009   5.466
  172EMI    N02 3267   1.141   0.883   5.703
  172EMI    H0E 3268   0.995   1.027   5.665
  173EMI    C01 3269   1.870   6.233   7.285
  173EMI    C04 3270   1.788   6.427   7.205
  173EMI    C03 3271   1.898   6.399   7.135
  173EMI    H07 3272   1.884   6.143   7.342
  173EMI    H09 3273   1.723   6.512   7.193
  173EMI    H08 3274   1.940   6.457   7.056
  173EMI    C05 3275   2.070   6.203   7.142
  173EMI    H0B 3276   2.058   6.098   7.157
  173EMI    H0C 3277   2.085   6.223   7.039
  173EMI    H0D 3278   2.155   6.237   7.198
  173EMI    N00 3279   1.949   6.273   7.189
  173EMI    C06 3280   1.664   6.305   7.400
  173EMI    H0F 3281   1.693   6.353   7.491
  173EMI    C0N 3282   1.536   6.372   7.345
  173EMI    H0O 3283   1.458   6.363   7.417
  173EMI    H0P 3284   1.556   6.475   7.327
  173EMI    H0Q 3285   1.507   6.324   7.254
  173EMI    N02 3286   1.772   6.317   7.301
  173EMI    H0E 3287   1.645   6.202   7.419
  174EMI    C01 3288   5.168   5.046   0.637
  174EMI    C04 3289   5.305   5.066   0.815
  174EMI    C03 3290   5.354   5.143   0.718
  174EMI    H07 3291   5.087   5.016   0.573
  174EMI    H09 3292   5.346   5.051   0.913
  174EMI    H08 3293   5.442   5.204   0.722
  174EMI    C05 3294   5.277   5.195   0.474
  174EMI    H0B 3295   5.180   5.211   0.432
  174EMI    H0C 3296   5.326   5.290   0.488
  174EMI    H0D 3297   5.335   5.134   0.408
  174EMI    N00 3298   5.263   5.128   0.604
  174EMI    C06 3299   5.097   4.910   0.831
  174EMI    H0F 3300   5.130   4.809   0.815
  174EMI    C0N 3301   5.100   4.940   0.982
  174EMI    H0O 3302   5.036   4.872   1.034
  174EMI    H0P 3303   5.200   4.930   1.018
  174EMI    H0Q 3304   5.066   5.040   0.999
  174EMI    N02 3305   5.184   5.003   0.760
  174EMI    H0E 3306   4.997   4.920   0.795
  175EMI    C01 3307   3.740   1.689   1.710
  175EMI    C04 3308   3.655   1.483   1.675
  175EMI    C03 3309   3.684   1.535   1.555
  175EMI    H07 3310   3.775   1.778   1.757
  175EMI    H09 3311   3.613   1.387   1.695
  175EMI    H08 3312   3.670   1.489   1.459
  175EMI    C05 3313   3.785   1.763   1.478
  175EMI    H0B 3314   3.864   1.824   1.519
  175EMI    H0C 3315   3.822   1.709   1.394
  175EMI    H0D 3316   3.704   1.826   1.448
  175EMI    N00 3317   3.739   1.668   1.581
  175EMI    C06 3318   3.678   1.573   1.919
  175EMI    H0F 3319   3.582   1.609   1.949
  175EMI    C0N 3320   3.692   1.424   1.959
  175EMI    H0O 3321   3.682   1.415   2.065
  175EMI    H0P 3322   3.616   1.367   1.911
  175EMI    H0Q 3323   3.788   1.388   1.929
  175EMI    N02 3324   3.692   1.585   1.773
  175EMI    H0E 3325   3.755   1.630   1.967
  176EMI    C01 3326   6.555   4.643   0.618
  176EMI    C04 3327   6.351   4.732   0.655
  176EMI    C03 3328   6.336   4.599   0.650
  176EMI    H07 3329   6.660   4.631   0.601
  176EMI    H09 3330   6.274   4.805   0.671
  176EMI    H08 3331   6.245   4.545   0.661
  176EMI    C05 3332   6.502   4.402   0.613
  176EMI    H0B 3333   6.602   4.384   0.647
  176EMI    H0C 3334   6.433   4.344   0.671
  176EMI    H0D 3335   6.494   4.373   0.510
  176EMI    N00 3336   6.469   4.544   0.626
  176EMI    C06 3337   6.558   4.890   0.632
  176EMI    H0F 3338   6.558   4.928   0.532
  176EMI    C0N 3339   6.480   4.986   0.723
  176EMI    H0O 3340   6.527   5.083   0.721
  176EMI    H0P 3341   6.379   4.995   0.688
  176EMI    H0Q 3342   6.480   4.949   0.823
  176EMI    N02 3343   6.494   4.758   0.634
  176EMI    H0E 3344   6.659   4.881   0.666
  177EMI    C01 3345   7.350   1.856   1.653
  177EMI    C04 3346   7.198   1.716   1.561
  177EMI    C03 3347   7.163   1.841   1.528
  177EMI    H07 3348   7.434   1.894   1.707
  177EMI    H09 3349   7.148   1.626   1.534
  177EMI    H08 3350   7.079   1.870   1.469
  177EMI    C05 3351   7.265   2.076   1.579
  177EMI    H0B 3352   7.366   2.110   1.584
  177EMI    H0C 3353   7.221   2.106   1.486
  177EMI    H0D 3354   7.209   2.118   1.660
  177EMI    N00 3355   7.263   1.929   1.589
  177EMI    C06 3356   7.395   1.618   1.702
  177EMI    H0F 3357   7.357   1.597   1.799
  177EMI    C0N 3358   7.380   1.493   1.613
  177EMI    H0O 3359   7.435   1.411   1.656
  177EMI    H0P 3360   7.276   1.466   1.606
  177EMI    H0Q 3361   7.418   1.513   1.515
  177EMI    N02 3362   7.319   1.729   1.642
  177EMI    H0E 3363   7.498   1.644   1.709
  178EMI    C01 3364   4.859   5.685   4.886
  178EMI    C04 3365   4.639   5.703   4.937
  178EMI    C03 3366   4.662   5.576   4.901
  178EMI    H07 3367   4.962   5.708   4.870
  178EMI    H09 3368   4.546   5.746   4.968
  178EMI    H08 3369   4.590   5.497   4.897
  178EMI    C05 3370   4.874   5.447   4.823
  178EMI    H0B 3371   4.976   5.451   4.855
  178EMI    H0C 3372   4.827   5.361   4.865
  178EMI    H0D 3373   4.871   5.441   4.716
  178EMI    N00 3374   4.804   5.568   4.868
  178EMI    C06 3375   4.794   5.913   4.957
  178EMI    H0F 3376   4.779   5.971   4.868
  178EMI    C0N 3377   4.696   5.960   5.066
  178EMI    H0O 3378   4.714   6.063   5.088
  178EMI    H0P 3379   4.595   5.948   5.031
  178EMI    H0Q 3380   4.710   5.902   5.154
  178EMI    N02 3381   4.769   5.771   4.926
  178EMI    H0E 3382   4.894   5.925   4.991
  179EMI    C01 3383   5.137   4.558   6.064
  179EMI    C04 3384   5.162   4.687   5.880
  179EMI    C03 3385   5.030   4.671   5.900
  179EMI    H07 3386   5.157   4.497   6.150
  179EMI    H09 3387   5.209   4.743   5.802
  179EMI    H08 3388   4.951   4.712   5.841
  179EMI    C05 3389   4.891   4.543   6.080
  179EMI    H0B 3390   4.904   4.530   6.185
  179EMI    H0C 3391   4.815   4.616   6.061
  179EMI    H0D 3392   4.861   4.450   6.036
  179EMI    N00 3393   5.017   4.587   6.019
  179EMI    C06 3394   5.373   4.601   6.007
  179EMI    H0F 3395   5.410   4.516   5.953
  179EMI    C0N 3396   5.442   4.728   5.954
  179EMI    H0O 3397   5.548   4.720   5.967
  179EMI    H0P 3398   5.421   4.740   5.849
  179EMI    H0Q 3399   5.406   4.814   6.007
  179EMI    N02 3400   5.228   4.612   5.988
  179EMI    H0E 3401   5.395   4.590   6.111
  180EMI    C01 3402   5.642   2.259   2.484
  180EMI    C04 3403   5.815   2.294   2.625
  180EMI    C03 3404   5.867   2.262   2.506
  180EMI    H07 3405   5.544   2.250   2.444
  180EMI    H09 3406   5.869   2.316   2.715
  180EMI    H08 3407   5.971   2.253   2.481
  180EMI    C05 3408   5.761   2.202   2.275
  180EMI    H0B 3409   5.676   2.242   2.223
  180EMI    H0C 3410   5.850   2.242   2.233
  180EMI    H0D 3411   5.761   2.096   2.266
  180EMI    N00 3412   5.753   2.240   2.417
  180EMI    C06 3413   5.571   2.320   2.713
  180EMI    H0F 3414   5.546   2.230   2.764
  180EMI    C0N 3415   5.631   2.421   2.814
  180EMI    H0O 3416   5.559   2.442   2.890
  180EMI    H0P 3417   5.719   2.379   2.858
  180EMI    H0Q 3418   5.656   2.511   2.763
  180EMI    N02 3419   5.670   2.291   2.608
  180EMI    H0E 3420   5.483   2.362   2.669
  181EMI    C01 3421   1.327   6.521   2.115
  181EMI    C04 3422   1.507   6.533   2.250
  181EMI    C03 3423   1.498   6.407   2.208
  181EMI    H07 3424   1.239   6.546   2.058
  181EMI    H09 3425   1.581   6.574   2.315
  181EMI    H08 3426   1.562   6.326   2.233
  181EMI    C05 3427   1.330   6.282   2.052
  181EMI    H0B 3428   1.281   6.311   1.961
  181EMI    H0C 3429   1.412   6.217   2.029
  181EMI    H0D 3430   1.260   6.231   2.114
  181EMI    N00 3431   1.380   6.402   2.121
  181EMI    C06 3432   1.365   6.748   2.205
  181EMI    H0F 3433   1.300   6.761   2.289
  181EMI    C0N 3434   1.496   6.825   2.230
  181EMI    H0O 3435   1.474   6.929   2.242
  181EMI    H0P 3436   1.543   6.788   2.318
  181EMI    H0Q 3437   1.561   6.813   2.146
  181EMI    N02 3438   1.395   6.605   2.188
  181EMI    H0E 3439   1.317   6.785   2.117
  182EMI    C01 3440   1.593   2.618   3.707
  182EMI    C04 3441   1.653   2.583   3.492
  182EMI    C03 3442   1.735   2.676   3.542
  182EMI    H07 3443   1.542   2.613   3.801
  182EMI    H09 3444   1.653   2.542   3.393
  182EMI    H08 3445   1.815   2.725   3.490
  182EMI    C05 3446   1.756   2.791   3.775
  182EMI    H0B 3447   1.746   2.753   3.875
  182EMI    H0C 3448   1.860   2.802   3.751
  182EMI    H0D 3449   1.707   2.886   3.768
  182EMI    N00 3450   1.694   2.697   3.681
  182EMI    C06 3451   1.453   2.448   3.594
  182EMI    H0F 3452   1.363   2.497   3.562
  182EMI    C0N 3453   1.491   2.339   3.493
  182EMI    H0O 3454   1.412   2.267   3.487
  182EMI    H0P 3455   1.506   2.382   3.396
  182EMI    H0Q 3456   1.581   2.290   3.524
  182EMI    N02 3457   1.562   2.547   3.602
  182EMI    H0E 3458   1.438   2.405   3.690
  183EMI    C01 3459   3.847   0.332   5.110
  183EMI    C04 3460   3.930   0.122   5.112
  183EMI    C03 3461   3.960   0.178   5.230
  183EMI    H07 3462   3.798   0.422   5.080
  183EMI    H09 3463   3.955   0.023   5.079
  183EMI    H08 3464   4.013   0.133   5.311
  183EMI    C05 3465   3.914   0.413   5.334
  183EMI    H0B 3466   3.828   0.477   5.330
  183EMI    H0C 3467   3.916   0.362   5.428
  183EMI    H0D 3468   4.002   0.471   5.322
  183EMI    N00 3469   3.905   0.314   5.226
  183EMI    C06 3470   3.803   0.208   4.901
  183EMI    H0F 3471   3.877   0.239   4.830
  183EMI    C0N 3472   3.767   0.061   4.877
  183EMI    H0O 3473   3.728   0.049   4.778
  183EMI    H0P 3474   3.854  -0.000   4.888
  183EMI    H0Q 3475   3.693   0.030   4.948
  183EMI    N02 3476   3.857   0.224   5.037
  183EMI    H0E 3477   3.716   0.269   4.889
  184EMI    C01 3478   2.660   4.431   1.363
  184EMI    C04 3479   2.626   4.652   1.396
  184EMI    C03 3480   2.741   4.639   1.328
  184EMI    H07 3481   2.648   4.325   1.363
  184EMI    H09 3482   2.580   4.743   1.428
  184EMI    H08 3483   2.805   4.718   1.295
  184EMI    C05 3484   2.873   4.433   1.238
  184EMI    H0B 3485   2.841   4.342   1.193
  184EMI    H0C 3486   2.909   4.500   1.162
  184EMI    H0D 3487   2.952   4.413   1.308
  184EMI    N00 3488   2.760   4.495   1.308
  184EMI    C06 3489   2.452   4.480   1.487
  184EMI    H0F 3490   2.473   4.466   1.591
  184EMI    C0N 3491   2.349   4.593   1.470
  184EMI    H0O 3492   2.259   4.567   1.521
  184EMI    H0P 3493   2.389   4.684   1.511
  184EMI    H0Q 3494   2.328   4.607   1.366
  184EMI    N02 3495   2.576   4.516   1.417
  184EMI    H0E 3496   2.413   4.389   1.446
  185EMI    C01 3497   0.358   5.758   0.932
  185EMI    C04 3498   0.177   5.858   1.024
  185EMI    C03 3499   0.147   5.729   1.008
  185EMI    H07 3500   0.455   5.740   0.891
  185EMI    H09 3501   0.115   5.935   1.065
  185EMI    H08 3502   0.055   5.681   1.034
  185EMI    C05 3503   0.278   5.524   0.913
  185EMI    H0B 3504   0.381   5.495   0.922
  185EMI    H0C 3505   0.218   5.466   0.979
  185EMI    H0D 3506   0.246   5.510   0.812
  185EMI    N00 3507   0.265   5.667   0.949
  185EMI    C06 3508   0.391   6.000   0.972
  185EMI    H0F 3509   0.373   6.050   0.879
  185EMI    C0N 3510   0.345   6.090   1.088
  185EMI    H0O 3511   0.401   6.181   1.086
  185EMI    H0P 3512   0.241   6.111   1.078
  185EMI    H0Q 3513   0.362   6.039   1.181
  185EMI    N02 3514   0.314   5.874   0.974
  185EMI    H0E 3515   0.495   5.978   0.982
  186EMI    C01 3516   5.400   2.639   5.277
  186EMI    C04 3517   5.614   2.569   5.260
  186EMI    C03 3518   5.612   2.668   5.350
  186EMI    H07 3519   5.295   2.650   5.263
  186EMI    H09 3520   5.699   2.513   5.228
  186EMI    H08 3521   5.695   2.707   5.405
  186EMI    C05 3522   5.421   2.819   5.445
  186EMI    H0B 3523   5.320   2.798   5.472
  186EMI    H0C 3524   5.481   2.825   5.533
  186EMI    H0D 3525   5.425   2.912   5.393
  186EMI    N00 3526   5.472   2.711   5.359
  186EMI    C06 3527   5.429   2.455   5.115
  186EMI    H0F 3528   5.435   2.498   5.017
  186EMI    C0N 3529   5.519   2.330   5.120
  186EMI    H0O 3530   5.485   2.259   5.048
  186EMI    H0P 3531   5.620   2.357   5.099
  186EMI    H0Q 3532   5.514   2.286   5.218
  186EMI    N02 3533   5.476   2.553   5.214
  186EMI    H0E 3534   5.328   2.427   5.136
  187EMI    C01 3535   5.924   4.964   1.867
  187EMI    C04 3536   6.103   4.871   1.766
  187EMI    C03 3537   6.149   4.947   1.866
  187EMI    H07 3538   5.824   4.992   1.893
  187EMI    H09 3539   6.161   4.812   1.697
  187EMI    H08 3540   6.252   4.962   1.893
  187EMI    C05 3541   6.034   5.098   2.045
  187EMI    H0B 3542   5.944   5.085   2.102
  187EMI    H0C 3543   6.118   5.076   2.106
  187EMI    H0D 3544   6.039   5.199   2.010
  187EMI    N00 3545   6.032   5.006   1.929
  187EMI    C06 3546   5.863   4.818   1.678
  187EMI    H0F 3547   5.846   4.880   1.593
  187EMI    C0N 3548   5.923   4.684   1.631
  187EMI    H0O 3549   5.854   4.635   1.565
  187EMI    H0P 3550   6.015   4.701   1.581
  187EMI    H0Q 3551   5.940   4.621   1.716
  187EMI    N02 3552   5.957   4.884   1.769
  187EMI    H0E 3553   5.771   4.800   1.728
  188EMI    C01 3554   4.783   0.973   7.091
  188EMI    C04 3555   4.715   1.032   7.299
  188EMI    C03 3556   4.769   1.141   7.242
  188EMI    H07 3557   4.803   0.917   7.003
  188EMI    H09 3558   4.673   1.024   7.397
  188EMI    H08 3559   4.778   1.238   7.286
  188EMI    C05 3560   4.876   1.187   7.009
  188EMI    H0B 3561   4.851   1.154   6.911
  188EMI    H0C 3562   4.843   1.288   7.023
  188EMI    H0D 3563   4.983   1.182   7.022
  188EMI    N00 3564   4.812   1.100   7.108
  188EMI    C06 3565   4.680   0.786   7.216
  188EMI    H0F 3566   4.759   0.727   7.257
  188EMI    C0N 3567   4.559   0.784   7.312
  188EMI    H0O 3568   4.526   0.683   7.325
  188EMI    H0P 3569   4.588   0.824   7.407
  188EMI    H0Q 3570   4.480   0.843   7.271
  188EMI    N02 3571   4.726   0.925   7.199
  188EMI    H0E 3572   4.650   0.746   7.121
  189EMI    C01 3573   5.277   7.685   4.819
  189EMI    C04 3574   5.125   7.527   4.765
  189EMI    C03 3575   5.244   7.485   4.720
  189EMI    H07 3576   5.324   7.774   4.856
  189EMI    H09 3577   5.031   7.476   4.756
  189EMI    H08 3578   5.264   7.393   4.668
  189EMI    C05 3579   5.484   7.586   4.727
  189EMI    H0B 3580   5.537   7.640   4.803
  189EMI    H0C 3581   5.518   7.484   4.725
  189EMI    H0D 3582   5.503   7.631   4.632
  189EMI    N00 3583   5.341   7.589   4.756
  189EMI    C06 3584   5.048   7.742   4.892
  189EMI    H0F 3585   5.007   7.808   4.820
  189EMI    C0N 3586   4.937   7.653   4.950
  189EMI    H0O 3587   4.863   7.715   4.997
  189EMI    H0P 3588   4.891   7.596   4.872
  189EMI    H0Q 3589   4.978   7.586   5.023
  189EMI    N02 3590   5.150   7.657   4.828
  189EMI    H0E 3591   5.094   7.798   4.971
  190EMI    C01 3592   3.441   7.059   0.328
  190EMI    C04 3593   3.445   6.941   0.520
  190EMI    C03 3594   3.446   6.853   0.419
  190EMI    H07 3595   3.438   7.139   0.258
  190EMI    H09 3596   3.447   6.918   0.625
  190EMI    H08 3597   3.448   6.746   0.427
  190EMI    C05 3598   3.442   6.878   0.160
  190EMI    H0B 3599   3.490   6.947   0.094
  190EMI    H0C 3600   3.494   6.785   0.158
  190EMI    H0D 3601   3.341   6.863   0.128
  190EMI    N00 3602   3.443   6.932   0.296
  190EMI    C06 3603   3.440   7.201   0.530
  190EMI    H0F 3604   3.339   7.230   0.549
  190EMI    C0N 3605   3.515   7.186   0.664
  190EMI    H0O 3606   3.513   7.279   0.716
  190EMI    H0P 3607   3.466   7.111   0.723
  190EMI    H0Q 3608   3.616   7.157   0.645
  190EMI    N02 3609   3.442   7.073   0.458
  190EMI    H0E 3610   3.488   7.276   0.471
  191EMI    C01 3611   0.516   0.949   3.515
  191EMI    C04 3612   0.378   0.779   3.462
  191EMI    C03 3613   0.303   0.889   3.473
  191EMI    H07 3614   0.604   1.006   3.538
  191EMI    H09 3615   0.344   0.680   3.438
  191EMI    H08 3616   0.197   0.897   3.459
  191EMI    C05 3617   0.358   1.138   3.528
  191EMI    H0B 3618   0.440   1.201   3.501
  191EMI    H0C 3619   0.273   1.162   3.469
  191EMI    H0D 3620   0.335   1.153   3.632
  191EMI    N00 3621   0.395   0.997   3.507
  191EMI    C06 3622   0.633   0.732   3.490
  191EMI    H0F 3623   0.647   0.692   3.588
  191EMI    C0N 3624   0.611   0.617   3.390
  191EMI    H0O 3625   0.697   0.553   3.390
  191EMI    H0P 3626   0.524   0.561   3.419
  191EMI    H0Q 3627   0.597   0.657   3.292
  191EMI    N02 3628   0.516   0.820   3.490
  191EMI    H0E 3629   0.720   0.788   3.461
  192EMI    C01 3630   3.588   1.918   0.869
  192EMI    C04 3631   3.683   2.080   0.994
  192EMI    C03 3632   3.763   2.060   0.888
  192EMI    H07 3633   3.521   1.842   0.833
  192EMI    H09 3634   3.698   2.150   1.073
  192EMI    H08 3635   3.854   2.110   0.866
  192EMI    C05 3636   3.750   1.898   0.683
  192EMI    H0B 3637   3.668   1.866   0.622
  192EMI    H0C 3638   3.806   1.973   0.631
  192EMI    H0D 3639   3.814   1.815   0.705
  192EMI    N00 3640   3.699   1.954   0.809
  192EMI    C06 3641   3.458   1.973   1.072
  192EMI    H0F 3642   3.482   1.900   1.146
  192EMI    C0N 3643   3.431   2.108   1.140
  192EMI    H0O 3644   3.349   2.098   1.208
  192EMI    H0P 3645   3.518   2.139   1.194
  192EMI    H0Q 3646   3.407   2.182   1.066
  192EMI    N02 3647   3.571   1.986   0.979
  192EMI    H0E 3648   3.371   1.942   1.018
  193EMI    C01 3649   4.844   6.804   7.081
  193EMI    C04 3650   4.679   6.941   7.013
  193EMI    C03 3651   4.769   7.016   7.078
  193EMI    H07 3652   4.904   6.717   7.099
  193EMI    H09 3653   4.588   6.975   6.968
  193EMI    H08 3654   4.764   7.122   7.095
  193EMI    C05 3655   4.995   6.962   7.197
  193EMI    H0B 3656   5.075   6.896   7.171
  193EMI    H0C 3657   5.022   7.062   7.172
  193EMI    H0D 3658   4.975   6.955   7.302
  193EMI    N00 3659   4.875   6.924   7.121
  193EMI    C06 3660   4.665   6.687   6.958
  193EMI    H0F 3661   4.600   6.642   7.030
  193EMI    C0N 3662   4.583   6.730   6.835
  193EMI    H0O 3663   4.536   6.644   6.792
  193EMI    H0P 3664   4.509   6.801   6.864
  193EMI    H0Q 3665   4.648   6.775   6.762
  193EMI    N02 3666   4.731   6.804   7.017
  193EMI    H0E 3667   4.739   6.616   6.928
  194EMI    C01 3668   4.149   5.493   1.358
  194EMI    C04 3669   4.333   5.464   1.232
  194EMI    C03 3670   4.293   5.591   1.215
  194EMI    H07 3671   4.067   5.476   1.425
  194EMI    H09 3672   4.418   5.417   1.186
  194EMI    H08 3673   4.339   5.665   1.153
  194EMI    C05 3674   4.095   5.729   1.312
  194EMI    H0B 3675   4.050   5.733   1.409
  194EMI    H0C 3676   4.158   5.814   1.298
  194EMI    H0D 3677   4.017   5.731   1.237
  194EMI    N00 3678   4.173   5.606   1.298
  194EMI    C06 3679   4.242   5.264   1.373
  194EMI    H0F 3680   4.185   5.202   1.307
  194EMI    C0N 3681   4.388   5.216   1.377
  194EMI    H0O 3682   4.391   5.114   1.412
  194EMI    H0P 3683   4.429   5.220   1.278
  194EMI    H0Q 3684   4.444   5.278   1.443
  194EMI    N02 3685   4.238   5.403   1.325
  194EMI    H0E 3686   4.200   5.260   1.472
  195EMI    C01 3687   2.806   6.387   0.524
  195EMI    C04 3688   3.024   6.385   0.465
  195EMI    C03 3689   2.955   6.330   0.365
  195EMI    H07 3690   2.715   6.402   0.578
  195EMI    H09 3691   3.130   6.400   0.471
  195EMI    H08 3692   2.995   6.291   0.273
  195EMI    C05 3693   2.702   6.282   0.326
  195EMI    H0B 3694   2.614   6.339   0.349
  195EMI    H0C 3695   2.724   6.292   0.222
  195EMI    H0D 3696   2.685   6.179   0.350
  195EMI    N00 3697   2.815   6.333   0.405
  195EMI    C06 3698   2.954   6.485   0.696
  195EMI    H0F 3699   2.972   6.409   0.770
  195EMI    C0N 3700   3.080   6.574   0.682
  195EMI    H0O 3701   3.101   6.620   0.776
  195EMI    H0P 3702   3.163   6.513   0.653
  195EMI    H0Q 3703   3.062   6.649   0.609
  195EMI    N02 3704   2.925   6.421   0.567
  195EMI    H0E 3705   2.871   6.545   0.726
  196EMI    C01 3706   1.052   1.038   3.429
  196EMI    C04 3707   0.989   0.842   3.523
  196EMI    C03 3708   0.897   0.933   3.556
  196EMI    H07 3709   1.106   1.112   3.374
  196EMI    H09 3710   0.991   0.738   3.551
  196EMI    H08 3711   0.810   0.917   3.615
  196EMI    C05 3712   0.869   1.187   3.503
  196EMI    H0B 3713   0.887   1.244   3.414
  196EMI    H0C 3714   0.764   1.169   3.513
  196EMI    H0D 3715   0.904   1.241   3.588
  196EMI    N00 3716   0.940   1.058   3.494
  196EMI    C06 3717   1.209   0.853   3.382
  196EMI    H0F 3718   1.290   0.861   3.450
  196EMI    C0N 3719   1.183   0.704   3.351
  196EMI    H0O 3720   1.270   0.660   3.308
  196EMI    H0P 3721   1.159   0.653   3.442
  196EMI    H0Q 3722   1.101   0.695   3.283
  196EMI    N02 3723   1.088   0.912   3.441
  196EMI    H0E 3724   1.233   0.904   3.291
  197EMI    C01 3725   5.836   2.157   1.983
  197EMI    C04 3726   5.615   2.180   2.021
  197EMI    C03 3727   5.644   2.050   2.035
  197EMI    H07 3728   5.938   2.178   1.960
  197EMI    H09 3729   5.518   2.225   2.032
  197EMI    H08 3730   5.577   1.971   2.060
  197EMI    C05 3731   5.866   1.914   2.014
  197EMI    H0B 3732   5.966   1.935   2.044
  197EMI    H0C 3733   5.822   1.846   2.085
  197EMI    H0D 3734   5.866   1.869   1.917
  197EMI    N00 3735   5.788   2.038   2.010
  197EMI    C06 3736   5.757   2.390   1.962
  197EMI    H0F 3737   5.742   2.410   1.858
  197EMI    C0N 3738   5.653   2.469   2.045
  197EMI    H0O 3739   5.665   2.574   2.026
  197EMI    H0P 3740   5.555   2.439   2.016
  197EMI    H0Q 3741   5.668   2.449   2.149
  197EMI    N02 3742   5.740   2.246   1.987
  197EMI    H0E 3743   5.856   2.420   1.991
  198EMI    C01 3744   2.079   6.859   6.911
  198EMI    C04 3745   2.033   7.061   7.000
  198EMI    C03 3746   1.995   6.969   7.089
  198EMI    H07 3747   2.110   6.781   6.845
  198EMI    H09 3748   2.026   7.167   7.010
  198EMI    H08 3749   1.952   6.987   7.185
  198EMI    C05 3750   2.002   6.708   7.092
  198EMI    H0B 3751   2.075   6.638   7.057
  198EMI    H0C 3752   2.009   6.717   7.198
  198EMI    H0D 3753   1.904   6.674   7.065
  198EMI    N00 3754   2.026   6.839   7.029
  198EMI    C06 3755   2.140   7.046   6.762
  198EMI    H0F 3756   2.061   7.058   6.691
  198EMI    C0N 3757   2.202   7.184   6.794
  198EMI    H0O 3758   2.241   7.227   6.704
  198EMI    H0P 3759   2.126   7.248   6.835
  198EMI    H0Q 3760   2.281   7.172   6.865
  198EMI    N02 3761   2.087   6.987   6.885
  198EMI    H0E 3762   2.216   6.982   6.722
  199EMI    C01 3763   5.214   0.998   6.207
  199EMI    C04 3764   5.405   0.879   6.184
  199EMI    C03 3765   5.423   0.995   6.122
  199EMI    H07 3766   5.115   1.028   6.234
  199EMI    H09 3767   5.475   0.798   6.193
  199EMI    H08 3768   5.511   1.027   6.070
  199EMI    C05 3769   5.273   1.205   6.085
  199EMI    H0B 3770   5.204   1.256   6.150
  199EMI    H0C 3771   5.364   1.260   6.081
  199EMI    H0D 3772   5.231   1.198   5.987
  199EMI    N00 3773   5.299   1.071   6.138
  199EMI    C06 3774   5.204   0.776   6.316
  199EMI    H0F 3775   5.152   0.710   6.249
  199EMI    C0N 3776   5.310   0.698   6.394
  199EMI    H0O 3777   5.263   0.620   6.451
  199EMI    H0P 3778   5.380   0.655   6.326
  199EMI    H0Q 3779   5.361   0.764   6.461
  199EMI    N02 3780   5.269   0.883   6.239
  199EMI    H0E 3781   5.133   0.820   6.384
  200EMI    C01 3782   4.391   6.920   0.272
  200EMI    C04 3783   4.428   7.108   0.392
  200EMI    C03 3784   4.298   7.080   0.403
  200EMI    H07 3785   4.404   6.834   0.210
  200EMI    H09 3786   4.480   7.191   0.436
  200EMI    H08 3787   4.225   7.135   0.458
  200EMI    C05 3788   4.148   6.889   0.308
  200EMI    H0B 3789   4.165   6.784   0.294
  200EMI    H0C 3790   4.088   6.904   0.394
  200EMI    H0D 3791   4.098   6.928   0.222
  200EMI    N00 3792   4.277   6.958   0.325
  200EMI    C06 3793   4.627   6.993   0.266
  200EMI    H0F 3794   4.642   7.047   0.175
  200EMI    C0N 3795   4.716   7.054   0.376
  200EMI    H0O 3796   4.818   7.046   0.347
  200EMI    H0P 3797   4.690   7.157   0.390
  200EMI    H0Q 3798   4.701   7.000   0.468
  200EMI    N02 3799   4.486   7.003   0.306
  200EMI    H0E 3800   4.652   6.890   0.252
  201EMI    C01 3801   0.312   7.712   3.607
  201EMI    C04 3802   0.380   7.765   3.816
  201EMI    C03 3803   0.293   7.664   3.827
  201EMI    H07 3804   0.300   7.711   3.501
  201EMI    H09 3805   0.432   7.814   3.895
  201EMI    H08 3806   0.261   7.617   3.917
  201EMI    C05 3807   0.155   7.527   3.653
  201EMI    H0B 3808   0.179   7.490   3.555
  201EMI    H0C 3809   0.159   7.448   3.724
  201EMI    H0D 3810   0.056   7.568   3.651
  201EMI    N00 3811   0.251   7.632   3.690
  201EMI    C06 3812   0.476   7.897   3.612
  201EMI    H0F 3813   0.421   7.989   3.606
  201EMI    C0N 3814   0.601   7.918   3.700
  201EMI    H0O 3815   0.663   7.994   3.656
  201EMI    H0P 3816   0.571   7.950   3.798
  201EMI    H0Q 3817   0.656   7.827   3.707
  201EMI    N02 3818   0.391   7.793   3.673
  201EMI    H0E 3819   0.506   7.866   3.514
  202EMI    C01 3820   6.287   4.462   5.673
  202EMI    C04 3821   6.509   4.502   5.662
  202EMI    C03 3822   6.491   4.373   5.632
  202EMI    H07 3823   6.182   4.473   5.686
  202EMI    H09 3824   6.602   4.555   5.667
  202EMI    H08 3825   6.567   4.302   5.607
  202EMI    C05 3826   6.280   4.222   5.614
  202EMI    H0B 3827   6.181   4.240   5.576
  202EMI    H0C 3828   6.336   4.165   5.543
  202EMI    H0D 3829   6.273   4.166   5.706
  202EMI    N00 3830   6.347   4.350   5.640
  202EMI    C06 3831   6.346   4.696   5.726
  202EMI    H0F 3832   6.348   4.705   5.833
  202EMI    C0N 3833   6.451   4.790   5.664
  202EMI    H0O 3834   6.429   4.891   5.691
  202EMI    H0P 3835   6.548   4.763   5.701
  202EMI    H0Q 3836   6.449   4.780   5.558
  202EMI    N02 3837   6.376   4.557   5.689
  202EMI    H0E 3838   6.249   4.722   5.690
  203EMI    C01 3839   2.347   5.361   2.545
  203EMI    C04 3840   2.140   5.270   2.552
  203EMI    C03 3841   2.201   5.240   2.667
  203EMI    H07 3842   2.434   5.414   2.513
  203EMI    H09 3843   2.041   5.242   2.522
  203EMI    H08 3844   2.160   5.183   2.748
  203EMI    C05 3845   2.437   5.293   2.765
  203EMI    H0B 3846   2.498   5.381   2.761
  203EMI    H0C 3847   2.390   5.287   2.861
  203EMI    H0D 3848   2.498   5.207   2.749
  203EMI    N00 3849   2.334   5.300   2.660
  203EMI    C06 3850   2.215   5.404   2.341
  203EMI    H0F 3851   2.245   5.333   2.267
  203EMI    C0N 3852   2.065   5.435   2.322
  203EMI    H0O 3853   2.049   5.476   2.225
  203EMI    H0P 3854   2.008   5.346   2.334
  203EMI    H0Q 3855   2.034   5.507   2.396
  203EMI    N02 3856   2.237   5.349   2.475
  203EMI    H0E 3857   2.272   5.494   2.329
  204EMI    C01 3858   4.371   7.820   0.409
  204EMI    C04 3859   4.504   7.702   0.548
  204EMI    C03 3860   4.394   7.629   0.528
  204EMI    H07 3861   4.332   7.897   0.345
  204EMI    H09 3862   4.588   7.676   0.609
  204EMI    H08 3863   4.372   7.533   0.569
  204EMI    C05 3864   4.177   7.668   0.387
  204EMI    H0B 3865   4.162   7.711   0.290
  204EMI    H0C 3866   4.173   7.561   0.379
  204EMI    H0D 3867   4.101   7.702   0.454
  204EMI    N00 3868   4.309   7.708   0.437
  204EMI    C06 3869   4.583   7.936   0.462
  204EMI    H0F 3870   4.562   8.007   0.539
  204EMI    C0N 3871   4.725   7.881   0.479
  204EMI    H0O 3872   4.796   7.961   0.473
  204EMI    H0P 3873   4.734   7.833   0.574
  204EMI    H0Q 3874   4.746   7.810   0.401
  204EMI    N02 3875   4.486   7.825   0.470
  204EMI    H0E 3876   4.574   7.983   0.366
  205EMI    C01 3877   0.301   3.001   0.522
  205EMI    C04 3878   0.195   2.820   0.438
  205EMI    C03 3879   0.114   2.875   0.528
  205EMI    H07 3880   0.374   3.077   0.541
  205EMI    H09 3881   0.176   2.733   0.378
  205EMI    H08 3882   0.017   2.841   0.557
  205EMI    C05 3883   0.134   3.083   0.684
  205EMI    H0B 3884   0.175   3.181   0.668
  205EMI    H0C 3885   0.028   3.088   0.678
  205EMI    H0D 3886   0.163   3.048   0.781
  205EMI    N00 3887   0.185   2.992   0.581
  205EMI    C06 3888   0.433   2.882   0.350
  205EMI    H0F 3889   0.503   2.819   0.401
  205EMI    C0N 3890   0.390   2.814   0.219
  205EMI    H0O 3891   0.476   2.798   0.157
  205EMI    H0P 3892   0.344   2.720   0.241
  205EMI    H0Q 3893   0.320   2.877   0.168
  205EMI    N02 3894   0.316   2.904   0.435
  205EMI    H0E 3895   0.479   2.976   0.328
  206EMI    C01 3896   7.082   3.932   2.114
  206EMI    C04 3897   6.896   3.823   2.182
  206EMI    C03 3898   6.856   3.936   2.123
  206EMI    H07 3899   7.184   3.957   2.096
  206EMI    H09 3900   6.833   3.748   2.226
  206EMI    H08 3901   6.756   3.970   2.109
  206EMI    C05 3902   6.985   4.133   2.010
  206EMI    H0B 3903   7.072   4.136   1.947
  206EMI    H0C 3904   6.897   4.146   1.950
  206EMI    H0D 3905   6.991   4.213   2.081
  206EMI    N00 3906   6.979   4.004   2.080
  206EMI    C06 3907   7.130   3.717   2.228
  206EMI    H0F 3908   7.155   3.740   2.330
  206EMI    C0N 3909   7.057   3.582   2.223
  206EMI    H0O 3910   7.121   3.505   2.261
  206EMI    H0P 3911   6.968   3.587   2.282
  206EMI    H0Q 3912   7.031   3.559   2.121
  206EMI    N02 3913   7.042   3.823   2.175
  206EMI    H0E 3914   7.219   3.712   2.169
  207EMI    C01 3915   5.490   1.528   0.766
  207EMI    C04 3916   5.282   1.602   0.720
  207EMI    C03 3917   5.353   1.609   0.606
  207EMI    H07 3918   5.576   1.489   0.817
  207EMI    H09 3919   5.180   1.631   0.734
  207EMI    H08 3920   5.318   1.642   0.511
  207EMI    C05 3921   5.599   1.548   0.545
  207EMI    H0B 3922   5.662   1.467   0.575
  207EMI    H0C 3923   5.561   1.529   0.447
  207EMI    H0D 3924   5.655   1.639   0.545
  207EMI    N00 3925   5.487   1.560   0.639
  207EMI    C06 3926   5.341   1.526   0.963
  207EMI    H0F 3927   5.361   1.614   1.020
  207EMI    C0N 3928   5.191   1.491   0.975
  207EMI    H0O 3929   5.167   1.474   1.078
  207EMI    H0P 3930   5.132   1.572   0.938
  207EMI    H0Q 3931   5.170   1.403   0.918
  207EMI    N02 3932   5.374   1.550   0.822
  207EMI    H0E 3933   5.399   1.445   1.000
  208EMI    C01 3934   6.155   0.807   3.319
  208EMI    C04 3935   6.045   1.004   3.329
  208EMI    C03 3936   5.954   0.907   3.341
  208EMI    H07 3937   6.232   0.734   3.311
  208EMI    H09 3938   6.027   1.109   3.330
  208EMI    H08 3939   5.848   0.919   3.352
  208EMI    C05 3940   5.969   0.646   3.342
  208EMI    H0B 3941   6.040   0.579   3.385
  208EMI    H0C 3942   5.881   0.649   3.403
  208EMI    H0D 3943   5.944   0.612   3.244
  208EMI    N00 3944   6.028   0.780   3.334
  208EMI    C06 3945   6.304   1.003   3.299
  208EMI    H0F 3946   6.324   1.018   3.195
  208EMI    C0N 3947   6.301   1.139   3.371
  208EMI    H0O 3948   6.396   1.188   3.359
  208EMI    H0P 3949   6.224   1.200   3.328
  208EMI    H0Q 3950   6.281   1.124   3.475
  208EMI    N02 3951   6.174   0.936   3.315
  208EMI    H0E 3952   6.381   0.942   3.342
  209EMI    C01 3953   4.416   6.826   4.594
  209EMI    C04 3954   4.627   6.905   4.585
  209EMI    C03 3955   4.553   6.997   4.648
  209EMI    H07 3956   4.330   6.764   4.583
  209EMI    H09 3957   4.732   6.911   4.564
  209EMI    H08 3958   4.586   7.090   4.688
  209EMI    C05 3959   4.300   7.009   4.713
  209EMI    H0B 3960   4.232   6.935   4.749
  209EMI    H0C 3961   4.332   7.071   4.794
  209EMI    H0D 3962   4.251   7.069   4.639
  209EMI    N00 3963   4.417   6.942   4.652
  209EMI    C06 3964   4.573   6.672   4.481
  209EMI    H0F 3965   4.562   6.686   4.375
  209EMI    C0N 3966   4.720   6.637   4.512
  209EMI    H0O 3967   4.747   6.547   4.461
  209EMI    H0P 3968   4.783   6.717   4.480
  209EMI    H0Q 3969   4.731   6.622   4.618
  209EMI    N02 3970   4.536   6.795   4.551
  209EMI    H0E 3971   4.509   6.592   4.513
  210EMI    C01 3972   3.257   4.387   0.375
  210EMI    C04 3973   3.107   4.227   0.429
  210EMI    C03 3974   3.228   4.171   0.436
  210EMI    H07 3975   3.302   4.480   0.347
  210EMI    H09 3976   3.013   4.180   0.449
  210EMI    H08 3977   3.251   4.070   0.462
  210EMI    C05 3978   3.470   4.262   0.394
  210EMI    H0B 3979   3.516   4.355   0.418
  210EMI    H0C 3980   3.501   4.187   0.464
  210EMI    H0D 3981   3.498   4.232   0.295
  210EMI    N00 3982   3.324   4.277   0.400
  210EMI    C06 3983   3.024   4.468   0.370
  210EMI    H0F 3984   2.991   4.466   0.268
  210EMI    C0N 3985   2.905   4.436   0.463
  210EMI    H0O 3986   2.828   4.510   0.448
  210EMI    H0P 3987   2.866   4.339   0.439
  210EMI    H0Q 3988   2.937   4.438   0.565
  210EMI    N02 3989   3.129   4.367   0.390
  210EMI    H0E 3990   3.062   4.565   0.393
  211EMI    C01 3991   5.263   1.528   7.294
  211EMI    C04 3992   5.384   1.655   7.436
  211EMI    C03 3993   5.320   1.738   7.354
  211EMI    H07 3994   5.218   1.445   7.244
  211EMI    H09 3995   5.451   1.681   7.516
  211EMI    H08 3996   5.325   1.845   7.354
  211EMI    C05 3997   5.155   1.702   7.155
  211EMI    H0B 3998   5.075   1.633   7.140
  211EMI    H0C 3999   5.115   1.798   7.181
  211EMI    H0D 4000   5.212   1.711   7.065
  211EMI    N00 4001   5.242   1.654   7.263
  211EMI    C06 4002   5.391   1.395   7.457
  211EMI    H0F 4003   5.481   1.361   7.408
  211EMI    C0N 4004   5.421   1.419   7.606
  211EMI    H0O 4005   5.455   1.328   7.651
  211EMI    H0P 4006   5.497   1.494   7.616
  211EMI    H0Q 4007   5.332   1.452   7.655
  211EMI    N02 4008   5.345   1.520   7.395
  211EMI    H0E 4009   5.315   1.320   7.448
  212EMI    C01 4010   2.278   7.390   7.361
  212EMI    C04 4011   2.198   7.203   7.458
  212EMI    C03 4012   2.181   7.189   7.326
  212EMI    H07 4013   2.322   7.486   7.346
  212EMI    H09 4014   2.171   7.132   7.534
  212EMI    H08 4015   2.137   7.106   7.275
  212EMI    C05 4016   2.236   7.343   7.122
  212EMI    H0B 4017   2.320   7.406   7.101
  212EMI    H0C 4018   2.244   7.252   7.067
  212EMI    H0D 4019   2.145   7.393   7.095
  212EMI    N00 4020   2.233   7.312   7.266
  212EMI    C06 4021   2.299   7.392   7.607
  212EMI    H0F 4022   2.217   7.449   7.647
  212EMI    C0N 4023   2.335   7.279   7.706
  212EMI    H0O 4024   2.362   7.321   7.800
  212EMI    H0P 4025   2.250   7.215   7.719
  212EMI    H0Q 4026   2.416   7.222   7.667
  212EMI    N02 4027   2.261   7.334   7.478
  212EMI    H0E 4028   2.384   7.455   7.594
  213EMI    C01 4029   0.254   3.345   4.579
  213EMI    C04 4030   0.125   3.398   4.756
  213EMI    C03 4031   0.081   3.470   4.652
  213EMI    H07 4032   0.329   3.300   4.517
  213EMI    H09 4033   0.087   3.400   4.856
  213EMI    H08 4034   0.000   3.540   4.652
  213EMI    C05 4035   0.155   3.487   4.403
  213EMI    H0B 4036   0.188   3.413   4.333
  213EMI    H0C 4037   0.053   3.512   4.383
  213EMI    H0D 4038   0.216   3.574   4.393
  213EMI    N00 4039   0.166   3.433   4.539
  213EMI    C06 4040   0.317   3.224   4.785
  213EMI    H0F 4041   0.401   3.276   4.829
  213EMI    C0N 4042   0.230   3.164   4.898
  213EMI    H0O 4043   0.289   3.096   4.955
  213EMI    H0P 4044   0.195   3.243   4.961
  213EMI    H0Q 4045   0.147   3.113   4.854
  213EMI    N02 4046   0.237   3.319   4.706
  213EMI    H0E 4047   0.353   3.146   4.722
  214EMI    C01 4048   0.362   2.181   4.585
  214EMI    C04 4049   0.374   2.400   4.639
  214EMI    C03 4050   0.254   2.357   4.678
  214EMI    H07 4051   0.385   2.083   4.549
  214EMI    H09 4052   0.414   2.499   4.649
  214EMI    H08 4053   0.177   2.414   4.726
  214EMI    C05 4054   0.135   2.125   4.666
  214EMI    H0B 4055   0.171   2.025   4.680
  214EMI    H0C 4056   0.082   2.156   4.753
  214EMI    H0D 4057   0.069   2.127   4.581
  214EMI    N00 4058   0.249   2.215   4.642
  214EMI    C06 4059   0.577   2.284   4.522
  214EMI    H0F 4060   0.572   2.309   4.418
  214EMI    C0N 4061   0.664   2.389   4.595
  214EMI    H0O 4062   0.762   2.389   4.553
  214EMI    H0P 4063   0.620   2.486   4.583
  214EMI    H0Q 4064   0.669   2.364   4.699
  214EMI    N02 4065   0.442   2.284   4.579
  214EMI    H0E 4066   0.621   2.187   4.534
  215EMI    C01 4067   6.540   1.268   6.022
  215EMI    C04 4068   6.410   1.094   6.083
  215EMI    C03 4069   6.503   1.108   6.178
  215EMI    H07 4070   6.581   1.350   5.968
  215EMI    H09 4071   6.331   1.021   6.081
  215EMI    H08 4072   6.516   1.049   6.266
  215EMI    C05 4073   6.703   1.274   6.208
  215EMI    H0B 4074   6.712   1.379   6.188
  215EMI    H0C 4075   6.689   1.258   6.313
  215EMI    H0D 4076   6.791   1.224   6.175
  215EMI    N00 4077   6.586   1.221   6.135
  215EMI    C06 4078   6.357   1.222   5.862
  215EMI    H0F 4079   6.399   1.164   5.781
  215EMI    C0N 4080   6.211   1.179   5.885
  215EMI    H0O 4081   6.154   1.196   5.796
  215EMI    H0P 4082   6.208   1.075   5.911
  215EMI    H0Q 4083   6.170   1.236   5.966
  215EMI    N02 4084   6.436   1.198   5.984
  215EMI    H0E 4085   6.361   1.325   5.837
  216EMI    C01 4086   4.246   1.535   1.665
  216EMI    C04 4087   4.068   1.667   1.710
  216EMI    C03 4088   4.026   1.540   1.718
  216EMI    H07 4089   4.344   1.502   1.641
  216EMI    H09 4090   4.009   1.755   1.726
  216EMI    H08 4091   3.928   1.505   1.742
  216EMI    C05 4092   4.146   1.310   1.686
  216EMI    H0B 4093   4.244   1.276   1.713
  216EMI    H0C 4094   4.074   1.272   1.755
  216EMI    H0D 4095   4.123   1.276   1.587
  216EMI    N00 4096   4.144   1.457   1.689
  216EMI    C06 4097   4.298   1.777   1.656
  216EMI    H0F 4098   4.295   1.807   1.553
  216EMI    C0N 4099   4.250   1.893   1.744
  216EMI    H0O 4100   4.314   1.978   1.730
  216EMI    H0P 4101   4.150   1.920   1.717
  216EMI    H0Q 4102   4.252   1.864   1.847
  216EMI    N02 4103   4.210   1.661   1.676
  216EMI    H0E 4104   4.398   1.750   1.683
  217EMI    C01 4105   5.258   6.920   2.678
  217EMI    C04 4106   5.035   6.887   2.659
  217EMI    C03 4107   5.058   7.018   2.644
  217EMI    H07 4108   5.363   6.903   2.691
  217EMI    H09 4109   4.941   6.837   2.655
  217EMI    H08 4110   4.985   7.094   2.627
  217EMI    C05 4111   5.274   7.164   2.649
  217EMI    H0B 4112   5.372   7.148   2.610
  217EMI    H0C 4113   5.221   7.231   2.584
  217EMI    H0D 4114   5.281   7.208   2.746
  217EMI    N00 4115   5.203   7.036   2.657
  217EMI    C06 4116   5.192   6.683   2.701
  217EMI    H0F 4117   5.188   6.660   2.805
  217EMI    C0N 4118   5.085   6.600   2.627
  217EMI    H0O 4119   5.103   6.496   2.642
  217EMI    H0P 4120   4.988   6.625   2.664
  217EMI    H0Q 4121   5.090   6.623   2.522
  217EMI    N02 4122   5.167   6.826   2.680
  217EMI    H0E 4123   5.289   6.658   2.663
  218EMI    C01 4124   6.231   3.478   6.834
  218EMI    C04 4125   6.384   3.564   6.692
  218EMI    C03 4126   6.412   3.434   6.707
  218EMI    H07 4127   6.148   3.468   6.901
  218EMI    H09 4128   6.437   3.634   6.631
  218EMI    H08 4129   6.492   3.379   6.661
  218EMI    C05 4130   6.303   3.242   6.845
  218EMI    H0B 4131   6.200   3.217   6.866
  218EMI    H0C 4132   6.340   3.176   6.769
  218EMI    H0D 4133   6.360   3.230   6.935
  218EMI    N00 4134   6.312   3.381   6.799
  218EMI    C06 4135   6.199   3.719   6.791
  218EMI    H0F 4136   6.243   3.773   6.872
  218EMI    C0N 4137   6.216   3.801   6.661
  218EMI    H0O 4138   6.167   3.895   6.672
  218EMI    H0P 4139   6.320   3.817   6.642
  218EMI    H0Q 4140   6.172   3.748   6.580
  218EMI    N02 4141   6.267   3.589   6.775
  218EMI    H0E 4142   6.095   3.703   6.810
  219EMI    C01 4143   5.296   1.908   5.719
  219EMI    C04 4144   5.393   1.705   5.741
  219EMI    C03 4145   5.404   1.767   5.858
  219EMI    H07 4146   5.245   1.993   5.679
  219EMI    H09 4147   5.428   1.607   5.716
  219EMI    H08 4148   5.451   1.729   5.947
  219EMI    C05 4149   5.330   2.002   5.945
  219EMI    H0B 4150   5.241   2.060   5.928
  219EMI    H0C 4151   5.325   1.956   6.041
  219EMI    H0D 4152   5.415   2.066   5.940
  219EMI    N00 4153   5.341   1.898   5.841
  219EMI    C06 4154   5.286   1.773   5.512
  219EMI    H0F 4155   5.366   1.805   5.448
  219EMI    C0N 4156   5.263   1.622   5.491
  219EMI    H0O 4157   5.237   1.603   5.389
  219EMI    H0P 4158   5.353   1.568   5.516
  219EMI    H0Q 4159   5.183   1.589   5.555
  219EMI    N02 4160   5.322   1.798   5.652
  219EMI    H0E 4161   5.197   1.826   5.488
  220EMI    C01 4162   5.235   3.416   3.332
  220EMI    C04 4163   5.460   3.424   3.353
  220EMI    C03 4164   5.413   3.547   3.376
  220EMI    H07 4165   5.135   3.382   3.316
  220EMI    H09 4166   5.562   3.392   3.355
  220EMI    H08 4167   5.471   3.634   3.400
  220EMI    C05 4168   5.174   3.651   3.379
  220EMI    H0B 4169   5.080   3.614   3.414
  220EMI    H0C 4170   5.214   3.721   3.449
  220EMI    H0D 4171   5.160   3.700   3.285
  220EMI    N00 4172   5.268   3.539   3.362
  220EMI    C06 4173   5.343   3.198   3.294
  220EMI    H0F 4174   5.352   3.184   3.188
  220EMI    C0N 4175   5.463   3.131   3.364
  220EMI    H0O 4176   5.465   3.026   3.341
  220EMI    H0P 4177   5.554   3.176   3.330
  220EMI    H0Q 4178   5.455   3.144   3.470
  220EMI    N02 4179   5.342   3.341   3.325
  220EMI    H0E 4180   5.253   3.152   3.328
  221EMI    C01 4181   4.213   6.114   1.259
  221EMI    C04 4182   4.342   5.940   1.196
  221EMI    C03 4183   4.240   5.946   1.111
  221EMI    H07 4184   4.174   6.199   1.311
  221EMI    H09 4185   4.423   5.870   1.195
  221EMI    H08 4186   4.221   5.880   1.028
  221EMI    C05 4187   4.033   6.104   1.089
  221EMI    H0B 4188   4.022   6.210   1.103
  221EMI    H0C 4189   4.037   6.081   0.985
  221EMI    H0D 4190   3.950   6.053   1.134
  221EMI    N00 4191   4.158   6.059   1.154
  221EMI    C06 4192   4.411   6.084   1.403
  221EMI    H0F 4193   4.380   6.030   1.490
  221EMI    C0N 4194   4.556   6.043   1.368
  221EMI    H0O 4195   4.620   6.068   1.449
  221EMI    H0P 4196   4.560   5.938   1.349
  221EMI    H0Q 4197   4.588   6.097   1.280
  221EMI    N02 4198   4.323   6.050   1.290
  221EMI    H0E 4199   4.407   6.189   1.421
  222EMI    C01 4200   3.113   3.926   4.332
  222EMI    C04 4201   3.206   4.129   4.361
  222EMI    C03 4202   3.120   4.139   4.259
  222EMI    H07 4203   3.088   3.822   4.342
  222EMI    H09 4204   3.268   4.207   4.402
  222EMI    H08 4205   3.099   4.227   4.202
  222EMI    C05 4206   2.961   3.970   4.142
  222EMI    H0B 4207   2.899   3.891   4.180
  222EMI    H0C 4208   2.900   4.055   4.119
  222EMI    H0D 4209   3.010   3.936   4.053
  222EMI    N00 4210   3.061   4.006   4.242
  222EMI    C06 4211   3.277   3.931   4.516
  222EMI    H0F 4212   3.369   3.893   4.479
  222EMI    C0N 4213   3.306   4.040   4.622
  222EMI    H0O 4214   3.362   3.997   4.702
  222EMI    H0P 4215   3.362   4.119   4.577
  222EMI    H0Q 4216   3.213   4.078   4.659
  222EMI    N02 4217   3.199   3.990   4.406
  222EMI    H0E 4218   3.221   3.852   4.561
  223EMI    C01 4219   1.278   1.170   7.609
  223EMI    C04 4220   1.421   0.997   7.587
  223EMI    C03 4221   1.494   1.104   7.621
  223EMI    H07 4222   1.189   1.230   7.612
  223EMI    H09 4223   1.457   0.897   7.569
  223EMI    H08 4224   1.599   1.108   7.635
  223EMI    C05 4225   1.433   1.353   7.670
  223EMI    H0B 4226   1.351   1.398   7.722
  223EMI    H0C 4227   1.519   1.353   7.733
  223EMI    H0D 4228   1.453   1.409   7.581
  223EMI    N00 4229   1.398   1.214   7.634
  223EMI    C06 4230   1.166   0.959   7.547
  223EMI    H0F 4231   1.150   0.961   7.441
  223EMI    C0N 4232   1.192   0.814   7.592
  223EMI    H0O 4233   1.107   0.753   7.568
  223EMI    H0P 4234   1.279   0.776   7.542
  223EMI    H0Q 4235   1.208   0.812   7.698
  223EMI    N02 4236   1.282   1.042   7.581
  223EMI    H0E 4237   1.079   0.997   7.597
  224EMI    C01 4238   0.391   3.801   4.075
  224EMI    C04 4239   0.611   3.758   4.100
  224EMI    C03 4240   0.550   3.641   4.080
  224EMI    H07 4241   0.297   3.851   4.067
  224EMI    H09 4242   0.716   3.774   4.116
  224EMI    H08 4243   0.596   3.544   4.077
  224EMI    C05 4244   0.301   3.573   4.040
  224EMI    H0B 4245   0.223   3.619   3.983
  224EMI    H0C 4246   0.341   3.490   3.987
  224EMI    H0D 4247   0.262   3.540   4.134
  224EMI    N00 4248   0.408   3.672   4.064
  224EMI    C06 4249   0.526   4.005   4.113
  224EMI    H0F 4250   0.517   4.030   4.216
  224EMI    C0N 4251   0.666   4.043   4.062
  224EMI    H0O 4252   0.680   4.149   4.074
  224EMI    H0P 4253   0.740   3.990   4.118
  224EMI    H0Q 4254   0.674   4.018   3.958
  224EMI    N02 4255   0.506   3.860   4.096
  224EMI    H0E 4256   0.452   4.058   4.057
  225EMI    C01 4257   3.933   1.458   2.181
  225EMI    C04 4258   4.139   1.457   2.089
  225EMI    C03 4259   4.102   1.329   2.105
  225EMI    H07 4260   3.840   1.491   2.223
  225EMI    H09 4261   4.232   1.492   2.048
  225EMI    H08 4262   4.159   1.242   2.080
  225EMI    C05 4263   3.887   1.216   2.201
  225EMI    H0B 4264   3.783   1.241   2.192
  225EMI    H0C 4265   3.910   1.135   2.135
  225EMI    H0D 4266   3.908   1.188   2.302
  225EMI    N00 4267   3.968   1.333   2.165
  225EMI    C06 4268   4.024   1.685   2.142
  225EMI    H0F 4269   4.064   1.720   2.234
  225EMI    C0N 4270   4.107   1.741   2.025
  225EMI    H0O 4271   4.104   1.848   2.027
  225EMI    H0P 4272   4.209   1.708   2.035
  225EMI    H0Q 4273   4.067   1.705   1.932
  225EMI    N02 4274   4.028   1.538   2.139
  225EMI    H0E 4275   3.922   1.718   2.132
  226EMI    C01 4276   2.448   5.160   0.445
  226EMI    C04 4277   2.297   5.328   0.449
  226EMI    C03 4278   2.362   5.330   0.566
  226EMI    H07 4279   2.506   5.076   0.413
  226EMI    H09 4280   2.219   5.394   0.418
  226EMI    H08 4281   2.347   5.398   0.647
  226EMI    C05 4282   2.553   5.183   0.667
  226EMI    H0B 4283   2.641   5.140   0.624
  226EMI    H0C 4284   2.579   5.270   0.723
  226EMI    H0D 4285   2.507   5.112   0.732
  226EMI    N00 4286   2.459   5.220   0.560
  226EMI    C06 4287   2.314   5.177   0.237
  226EMI    H0F 4288   2.236   5.104   0.243
  226EMI    C0N 4289   2.264   5.300   0.160
  226EMI    H0O 4290   2.235   5.271   0.061
  226EMI    H0P 4291   2.180   5.343   0.210
  226EMI    H0Q 4292   2.343   5.372   0.153
  226EMI    N02 4293   2.355   5.217   0.373
  226EMI    H0E 4294   2.398   5.134   0.186
  227EMI    C01 4295   2.215   6.630   3.314
  227EMI    C04 4296   2.241   6.711   3.105
  227EMI    C03 4297   2.242   6.578   3.096
  227EMI    H07 4298   2.202   6.623   3.420
  227EMI    H09 4299   2.251   6.781   3.025
  227EMI    H08 4300   2.254   6.519   3.007
  227EMI    C05 4301   2.220   6.386   3.272
  227EMI    H0B 4302   2.159   6.376   3.359
  227EMI    H0C 4303   2.180   6.328   3.192
  227EMI    H0D 4304   2.319   6.352   3.295
  227EMI    N00 4305   2.225   6.528   3.233
  227EMI    C06 4306   2.216   6.877   3.305
  227EMI    H0F 4307   2.314   6.910   3.332
  227EMI    C0N 4308   2.156   6.974   3.202
  227EMI    H0O 4309   2.150   7.072   3.244
  227EMI    H0P 4310   2.218   6.976   3.114
  227EMI    H0Q 4311   2.057   6.941   3.175
  227EMI    N02 4312   2.223   6.742   3.247
  227EMI    H0E 4313   2.154   6.875   3.392
  228EMI    C01 4314   3.872   3.369   6.117
  228EMI    C04 4315   3.662   3.426   6.057
  228EMI    C03 4316   3.655   3.305   6.113
  228EMI    H07 4317   3.978   3.371   6.132
  228EMI    H09 4318   3.580   3.483   6.018
  228EMI    H08 4319   3.568   3.245   6.127
  228EMI    C05 4320   3.835   3.145   6.215
  228EMI    H0B 4321   3.921   3.164   6.276
  228EMI    H0C 4322   3.756   3.108   6.276
  228EMI    H0D 4323   3.860   3.073   6.140
  228EMI    N00 4324   3.793   3.270   6.150
  228EMI    C06 4325   3.858   3.592   6.011
  228EMI    H0F 4326   3.885   3.581   5.908
  228EMI    C0N 4327   3.751   3.703   6.024
  228EMI    H0O 4328   3.792   3.795   5.987
  228EMI    H0P 4329   3.665   3.676   5.966
  228EMI    H0Q 4330   3.724   3.714   6.127
  228EMI    N02 4331   3.803   3.465   6.061
  228EMI    H0E 4332   3.944   3.619   6.068
  229EMI    C01 4333   6.111   3.786   0.195
  229EMI    C04 4334   6.212   3.593   0.255
  229EMI    C03 4335   6.090   3.561   0.211
  229EMI    H07 4336   6.092   3.889   0.176
  229EMI    H09 4337   6.286   3.525   0.292
  229EMI    H08 4338   6.047   3.464   0.204
  229EMI    C05 4339   5.892   3.703   0.118
  229EMI    H0B 4340   5.889   3.789   0.053
  229EMI    H0C 4341   5.865   3.616   0.062
  229EMI    H0D 4342   5.822   3.717   0.198
  229EMI    N00 4343   6.027   3.688   0.173
  229EMI    C06 4344   6.341   3.818   0.282
  229EMI    H0F 4345   6.333   3.848   0.384
  229EMI    C0N 4346   6.468   3.734   0.263
  229EMI    H0O 4347   6.554   3.792   0.290
  229EMI    H0P 4348   6.463   3.647   0.324
  229EMI    H0Q 4349   6.476   3.705   0.160
  229EMI    N02 4350   6.223   3.738   0.244
  229EMI    H0E 4351   6.346   3.905   0.220
  230EMI    C01 4352   4.757   1.565   4.388
  230EMI    C04 4353   4.850   1.360   4.398
  230EMI    C03 4354   4.892   1.417   4.285
  230EMI    H07 4355   4.700   1.653   4.411
  230EMI    H09 4356   4.875   1.263   4.435
  230EMI    H08 4357   4.958   1.374   4.212
  230EMI    C05 4358   4.848   1.649   4.173
  230EMI    H0B 4359   4.839   1.747   4.214
  230EMI    H0C 4360   4.944   1.637   4.129
  230EMI    H0D 4361   4.772   1.634   4.099
  230EMI    N00 4362   4.830   1.550   4.281
  230EMI    C06 4363   4.693   1.440   4.591
  230EMI    H0F 4364   4.597   1.397   4.574
  230EMI    C0N 4365   4.776   1.347   4.681
  230EMI    H0O 4366   4.725   1.333   4.774
  230EMI    H0P 4367   4.787   1.252   4.633
  230EMI    H0Q 4368   4.872   1.389   4.699
  230EMI    N02 4369   4.763   1.459   4.463
  230EMI    H0E 4370   4.682   1.535   4.639
  231EMI    C01 4371   4.479   5.219   2.924
  231EMI    C04 4372   4.364   5.027   2.895
  231EMI    C03 4373   4.474   5.019   2.819
  231EMI    H07 4374   4.509   5.316   2.957
  231EMI    H09 4375   4.287   4.953   2.906
  231EMI    H08 4376   4.502   4.937   2.756
  231EMI    C05 4377   4.673   5.181   2.775
  231EMI    H0B 4378   4.729   5.246   2.840
  231EMI    H0C 4379   4.730   5.092   2.756
  231EMI    H0D 4380   4.654   5.232   2.683
  231EMI    N00 4381   4.546   5.144   2.839
  231EMI    C06 4382   4.271   5.210   3.056
  231EMI    H0F 4383   4.196   5.264   3.003
  231EMI    C0N 4384   4.205   5.093   3.132
  231EMI    H0O 4385   4.132   5.132   3.201
  231EMI    H0P 4386   4.157   5.028   3.062
  231EMI    H0Q 4387   4.280   5.039   3.186
  231EMI    N02 4388   4.370   5.157   2.962
  231EMI    H0E 4389   4.319   5.275   3.126
  232EMI    C01 4390   0.375   5.683   2.814
  232EMI    C04 4391   0.582   5.618   2.877
  232EMI    C03 4392   0.509   5.507   2.860
  232EMI    H07 4393   0.290   5.743   2.786
  232EMI    H09 4394   0.684   5.624   2.907
  232EMI    H08 4395   0.541   5.406   2.874
  232EMI    C05 4396   0.261   5.465   2.789
  232EMI    H0B 4397   0.198   5.512   2.716
  232EMI    H0C 4398   0.297   5.372   2.751
  232EMI    H0D 4399   0.205   5.448   2.878
  232EMI    N00 4400   0.375   5.553   2.819
  232EMI    C06 4401   0.529   5.873   2.851
  232EMI    H0F 4402   0.509   5.911   2.949
  232EMI    C0N 4403   0.678   5.888   2.819
  232EMI    H0O 4404   0.705   5.992   2.823
  232EMI    H0P 4405   0.736   5.834   2.891
  232EMI    H0Q 4406   0.698   5.850   2.721
  232EMI    N02 4407   0.492   5.731   2.846
  232EMI    H0E 4408   0.471   5.927   2.780
  233EMI    C01 4409   7.741   1.613   3.551
  233EMI    C04 4410   7.527   1.545   3.527
  233EMI    C03 4411   7.605   1.436   3.518
  233EMI    H07 4412   7.828   1.674   3.565
  233EMI    H09 4413   7.421   1.549   3.520
  233EMI    H08 4414   7.572   1.336   3.503
  233EMI    C05 4415   7.863   1.399   3.531
  233EMI    H0B 4416   7.938   1.442   3.593
  233EMI    H0C 4417   7.838   1.301   3.567
  233EMI    H0D 4418   7.899   1.391   3.431
  233EMI    N00 4419   7.743   1.483   3.534
  233EMI    C06 4420   7.578   1.798   3.565
  233EMI    H0F 4421   7.575   1.846   3.469
  233EMI    C0N 4422   7.439   1.805   3.629
  233EMI    H0O 4423   7.409   1.907   3.641
  233EMI    H0P 4424   7.368   1.755   3.566
  233EMI    H0Q 4425   7.442   1.758   3.725
  233EMI    N02 4426   7.619   1.658   3.549
  233EMI    H0E 4427   7.649   1.849   3.627
  234EMI    C01 4428   7.579   6.112   2.914
  234EMI    C04 4429   7.522   6.014   3.110
  234EMI    C03 4430   7.655   6.029   3.111
  234EMI    H07 4431   7.575   6.156   2.817
  234EMI    H09 4432   7.461   5.972   3.187
  234EMI    H08 4433   7.722   6.000   3.188
  234EMI    C05 4434   7.825   6.127   2.939
  234EMI    H0B 4435   7.821   6.212   2.875
  234EMI    H0C 4436   7.885   6.149   3.024
  234EMI    H0D 4437   7.868   6.045   2.886
  234EMI    N00 4438   7.689   6.092   2.983
  234EMI    C06 4439   7.336   6.075   2.936
  234EMI    H0F 4440   7.312   5.986   2.883
  234EMI    C0N 4441   7.243   6.089   3.058
  234EMI    H0O 4442   7.141   6.093   3.025
  234EMI    H0P 4443   7.256   6.004   3.123
  234EMI    H0Q 4444   7.267   6.178   3.112
  234EMI    N02 4445   7.476   6.069   2.982
  234EMI    H0E 4446   7.323   6.160   2.872
  235EMI    C01 4447   6.304   2.522   2.208
  235EMI    C04 4448   6.359   2.465   1.997
  235EMI    C03 4449   6.282   2.368   2.045
  235EMI    H07 4450   6.296   2.575   2.301
  235EMI    H09 4451   6.404   2.470   1.899
  235EMI    H08 4452   6.251   2.279   1.994
  235EMI    C05 4453   6.163   2.331   2.274
  235EMI    H0B 4454   6.112   2.398   2.341
  235EMI    H0C 4455   6.091   2.274   2.219
  235EMI    H0D 4456   6.224   2.264   2.332
  235EMI    N00 4457   6.247   2.407   2.182
  235EMI    C06 4458   6.449   2.689   2.097
  235EMI    H0F 4459   6.550   2.671   2.130
  235EMI    C0N 4460   6.451   2.739   1.952
  235EMI    H0O 4461   6.507   2.830   1.946
  235EMI    H0P 4462   6.497   2.666   1.889
  235EMI    H0Q 4463   6.351   2.757   1.919
  235EMI    N02 4464   6.372   2.564   2.104
  235EMI    H0E 4465   6.404   2.762   2.160
  236EMI    C01 4466   3.606   0.425   7.447
  236EMI    C04 4467   3.631   0.637   7.521
  236EMI    C03 4468   3.620   0.558   7.628
  236EMI    H07 4469   3.596   0.339   7.383
  236EMI    H09 4470   3.643   0.743   7.519
  236EMI    H08 4471   3.623   0.589   7.731
  236EMI    C05 4472   3.589   0.301   7.660
  236EMI    H0B 4473   3.630   0.217   7.608
  236EMI    H0C 4474   3.640   0.314   7.753
  236EMI    H0D 4475   3.485   0.284   7.679
  236EMI    N00 4476   3.604   0.422   7.578
  236EMI    C06 4477   3.627   0.590   7.264
  236EMI    H0F 4478   3.529   0.612   7.229
  236EMI    C0N 4479   3.716   0.715   7.252
  236EMI    H0O 4480   3.721   0.746   7.149
  236EMI    H0P 4481   3.674   0.794   7.311
  236EMI    H0Q 4482   3.815   0.693   7.287
  236EMI    N02 4483   3.621   0.548   7.405
  236EMI    H0E 4484   3.670   0.511   7.205
  237EMI    C01 4485   5.059   3.767   5.990
  237EMI    C04 4486   5.065   3.567   6.094
  237EMI    C03 4487   4.937   3.591   6.061
  237EMI    H07 4488   5.088   3.860   5.947
  237EMI    H09 4489   5.103   3.480   6.144
  237EMI    H08 4490   4.853   3.528   6.080
  237EMI    C05 4491   4.818   3.789   5.940
  237EMI    H0B 4492   4.847   3.850   5.856
  237EMI    H0C 4493   4.746   3.716   5.909
  237EMI    H0D 4494   4.775   3.852   6.016
  237EMI    N00 4495   4.937   3.721   5.994
  237EMI    C06 4496   5.286   3.700   6.061
  237EMI    H0F 4497   5.307   3.750   6.153
  237EMI    C0N 4498   5.355   3.563   6.060
  237EMI    H0O 4499   5.461   3.576   6.070
  237EMI    H0P 4500   5.319   3.504   6.141
  237EMI    H0Q 4501   5.334   3.513   5.967
  237EMI    N02 4502   5.141   3.682   6.047
  237EMI    H0E 4503   5.323   3.759   5.979
  238EMI    C01 4504   4.373   4.973   6.748
  238EMI    C04 4505   4.386   4.840   6.567
  238EMI    C03 4506   4.469   4.790   6.659
  238EMI    H07 4507   4.345   5.052   6.816
  238EMI    H09 4508   4.368   4.801   6.469
  238EMI    H08 4509   4.531   4.703   6.650
  238EMI    C05 4510   4.532   4.863   6.902
  238EMI    H0B 4511   4.473   4.902   6.982
  238EMI    H0C 4512   4.551   4.759   6.919
  238EMI    H0D 4513   4.624   4.916   6.896
  238EMI    N00 4514   4.458   4.878   6.775
  238EMI    C06 4515   4.227   5.047   6.563
  238EMI    H0F 4516   4.277   5.125   6.511
  238EMI    C0N 4517   4.142   4.965   6.463
  238EMI    H0O 4518   4.071   5.029   6.416
  238EMI    H0P 4519   4.206   4.923   6.389
  238EMI    H0Q 4520   4.091   4.887   6.515
  238EMI    N02 4521   4.325   4.959   6.627
  238EMI    H0E 4522   4.162   5.089   6.637
  239EMI    C01 4523   6.693   3.069   6.420
  239EMI    C04 4524   6.553   3.243   6.390
  239EMI    C03 4525   6.673   3.281   6.346
  239EMI    H07 4526   6.733   2.973   6.446
  239EMI    H09 4527   6.463   3.301   6.390
  239EMI    H08 4528   6.699   3.376   6.304
  239EMI    C05 4529   6.905   3.162   6.334
  239EMI    H0B 4530   6.933   3.062   6.309
  239EMI    H0C 4531   6.925   3.226   6.250
  239EMI    H0D 4532   6.963   3.196   6.418
  239EMI    N00 4533   6.762   3.167   6.367
  239EMI    C06 4534   6.462   3.022   6.494
  239EMI    H0F 4535   6.459   3.036   6.600
  239EMI    C0N 4536   6.327   3.062   6.433
  239EMI    H0O 4537   6.249   3.001   6.475
  239EMI    H0P 4538   6.307   3.165   6.455
  239EMI    H0Q 4539   6.330   3.048   6.327
  239EMI    N02 4540   6.569   3.105   6.437
  239EMI    H0E 4541   6.482   2.919   6.473
  240EMI    C01 4542   1.322   5.894   7.024
  240EMI    C04 4543   1.147   5.925   6.886
  240EMI    C03 4544   1.099   5.926   7.011
  240EMI    H07 4545   1.421   5.878   7.062
  240EMI    H09 4546   1.090   5.937   6.796
  240EMI    H08 4547   0.997   5.939   7.042
  240EMI    C05 4548   1.212   5.899   7.245
  240EMI    H0B 4549   1.304   5.935   7.285
  240EMI    H0C 4550   1.131   5.960   7.282
  240EMI    H0D 4551   1.197   5.798   7.276
  240EMI    N00 4552   1.215   5.905   7.098
  240EMI    C06 4553   1.386   5.896   6.785
  240EMI    H0F 4554   1.395   5.795   6.753
  240EMI    C0N 4555   1.334   5.982   6.669
  240EMI    H0O 4556   1.403   5.977   6.587
  240EMI    H0P 4557   1.238   5.946   6.637
  240EMI    H0Q 4558   1.325   6.084   6.701
  240EMI    N02 4559   1.291   5.904   6.898
  240EMI    H0E 4560   1.481   5.932   6.817
  241EMI    C01 4561   5.139   4.356   5.495
  241EMI    C04 4562   5.355   4.387   5.556
  241EMI    C03 4563   5.316   4.269   5.606
  241EMI    H07 4564   5.042   4.370   5.453
  241EMI    H09 4565   5.451   4.433   5.566
  241EMI    H08 4566   5.375   4.202   5.664
  241EMI    C05 4567   5.091   4.137   5.598
  241EMI    H0B 4568   5.019   4.122   5.520
  241EMI    H0C 4569   5.152   4.049   5.607
  241EMI    H0D 4570   5.040   4.155   5.690
  241EMI    N00 4571   5.176   4.252   5.565
  241EMI    C06 4572   5.234   4.569   5.413
  241EMI    H0F 4573   5.203   4.647   5.481
  241EMI    C0N 4574   5.374   4.603   5.359
  241EMI    H0O 4575   5.371   4.696   5.307
  241EMI    H0P 4576   5.443   4.610   5.440
  241EMI    H0Q 4577   5.405   4.526   5.292
  241EMI    N02 4578   5.238   4.441   5.485
  241EMI    H0E 4579   5.165   4.563   5.332
  242EMI    C01 4580   1.287   7.415   4.850
  242EMI    C04 4581   1.326   7.195   4.819
  242EMI    C03 4582   1.241   7.234   4.724
  242EMI    H07 4583   1.289   7.515   4.890
  242EMI    H09 4584   1.365   7.097   4.833
  242EMI    H08 4585   1.198   7.174   4.646
  242EMI    C05 4586   1.130   7.464   4.666
  242EMI    H0B 4587   1.168   7.564   4.667
  242EMI    H0C 4588   1.128   7.428   4.565
  242EMI    H0D 4589   1.031   7.463   4.707
  242EMI    N00 4590   1.218   7.377   4.747
  242EMI    C06 4591   1.443   7.319   5.016
  242EMI    H0F 4592   1.387   7.298   5.105
  242EMI    C0N 4593   1.555   7.214   5.000
  242EMI    H0O 4594   1.620   7.218   5.085
  242EMI    H0P 4595   1.512   7.117   4.993
  242EMI    H0Q 4596   1.611   7.235   4.912
  242EMI    N02 4597   1.354   7.314   4.899
  242EMI    H0E 4598   1.487   7.417   5.024
  243EMI    C01 4599   2.057   4.693   4.567
  243EMI    C04 4600   1.904   4.572   4.453
  243EMI    C03 4601   1.879   4.555   4.583
  243EMI    H07 4602   2.138   4.758   4.591
  243EMI    H09 4603   1.851   4.528   4.371
  243EMI    H08 4604   1.801   4.495   4.627
  243EMI    C05 4605   1.990   4.647   4.801
  243EMI    H0B 4606   2.031   4.743   4.825
  243EMI    H0C 4607   1.894   4.636   4.845
  243EMI    H0D 4608   2.055   4.571   4.838
  243EMI    N00 4609   1.979   4.635   4.655
  243EMI    C06 4610   2.084   4.709   4.322
  243EMI    H0F 4611   2.161   4.641   4.294
  243EMI    C0N 4612   1.978   4.716   4.210
  243EMI    H0O 4613   2.025   4.751   4.120
  243EMI    H0P 4614   1.937   4.619   4.193
  243EMI    H0Q 4615   1.901   4.784   4.238
  243EMI    N02 4616   2.020   4.662   4.446
  243EMI    H0E 4617   2.125   4.806   4.338
  244EMI    C01 4618   1.778   2.384   7.482
  244EMI    C04 4619   1.724   2.179   7.560
  244EMI    C03 4620   1.845   2.209   7.608
  244EMI    H07 4621   1.775   2.478   7.432
  244EMI    H09 4622   1.668   2.089   7.578
  244EMI    H08 4623   1.907   2.148   7.671
  244EMI    C05 4624   2.002   2.416   7.582
  244EMI    H0B 4625   1.982   2.521   7.579
  244EMI    H0C 4626   2.040   2.389   7.678
  244EMI    H0D 4627   2.074   2.392   7.506
  244EMI    N00 4628   1.878   2.342   7.556
  244EMI    C06 4629   1.555   2.307   7.407
  244EMI    H0F 4630   1.566   2.268   7.308
  244EMI    C0N 4631   1.446   2.228   7.482
  244EMI    H0O 4632   1.353   2.237   7.429
  244EMI    H0P 4633   1.474   2.125   7.487
  244EMI    H0Q 4634   1.435   2.267   7.581
  244EMI    N02 4635   1.683   2.294   7.480
  244EMI    H0E 4636   1.527   2.410   7.402
  245EMI    C01 4637   2.452   2.740   7.785
  245EMI    C04 4638   2.501   2.577   7.933
  245EMI    C03 4639   2.601   2.666   7.938
  245EMI    H07 4640   2.403   2.799   7.710
  245EMI    H09 4641   2.493   2.486   7.989
  245EMI    H08 4642   2.688   2.662   8.000
  245EMI    C05 4643   2.647   2.890   7.812
  245EMI    H0B 4644   2.582   2.970   7.783
  245EMI    H0C 4645   2.701   2.918   7.900
  245EMI    H0D 4646   2.715   2.869   7.733
  245EMI    N00 4647   2.566   2.770   7.841
  245EMI    C06 4648   2.281   2.562   7.793
  245EMI    H0F 4649   2.300   2.495   7.711
  245EMI    C0N 4650   2.225   2.482   7.912
  245EMI    H0O 4651   2.134   2.434   7.883
  245EMI    H0P 4652   2.296   2.407   7.942
  245EMI    H0Q 4653   2.206   2.548   7.994
  245EMI    N02 4654   2.407   2.627   7.833
  245EMI    H0E 4655   2.210   2.636   7.763
  246EMI    C01 4656   2.837   6.382   3.401
  246EMI    C04 4657   2.644   6.449   3.305
  246EMI    C03 4658   2.647   6.316   3.299
  246EMI    H07 4659   2.932   6.382   3.450
  246EMI    H09 4660   2.567   6.514   3.269
  246EMI    H08 4661   2.573   6.252   3.257
  246EMI    C05 4662   2.820   6.137   3.378
  246EMI    H0B 4663   2.881   6.130   3.466
  246EMI    H0C 4664   2.735   6.072   3.388
  246EMI    H0D 4665   2.877   6.108   3.293
  246EMI    N00 4666   2.773   6.275   3.362
  246EMI    C06 4667   2.810   6.628   3.400
  246EMI    H0F 4668   2.866   6.666   3.317
  246EMI    C0N 4669   2.684   6.715   3.422
  246EMI    H0O 4670   2.714   6.816   3.442
  246EMI    H0P 4671   2.624   6.713   3.333
  246EMI    H0Q 4672   2.628   6.676   3.504
  246EMI    N02 4673   2.769   6.489   3.371
  246EMI    H0E 4674   2.870   6.630   3.488
  247EMI    C01 4675   3.857   5.124   0.500
  247EMI    C04 4676   3.980   5.088   0.686
  247EMI    C03 4677   4.028   5.197   0.627
  247EMI    H07 4678   3.784   5.115   0.422
  247EMI    H09 4679   4.015   5.042   0.776
  247EMI    H08 4680   4.110   5.258   0.661
  247EMI    C05 4681   3.964   5.328   0.410
  247EMI    H0B 4682   3.869   5.351   0.366
  247EMI    H0C 4683   4.003   5.414   0.460
  247EMI    H0D 4684   4.032   5.297   0.333
  247EMI    N00 4685   3.947   5.218   0.507
  247EMI    C06 4686   3.785   4.924   0.627
  247EMI    H0F 4687   3.828   4.839   0.580
  247EMI    C0N 4688   3.775   4.900   0.778
  247EMI    H0O 4689   3.714   4.814   0.797
  247EMI    H0P 4690   3.873   4.883   0.818
  247EMI    H0Q 4691   3.731   4.985   0.826
  247EMI    N02 4692   3.869   5.042   0.601
  247EMI    H0E 4693   3.687   4.941   0.587
  248EMI    C01 4694   1.145   7.132   0.918
  248EMI    C04 4695   0.963   7.005   0.958
  248EMI    C03 4696   1.069   6.926   0.969
  248EMI    H07 4697   1.209   7.215   0.895
  248EMI    H09 4698   0.860   6.978   0.971
  248EMI    H08 4699   1.070   6.821   0.992
  248EMI    C05 4700   1.326   6.966   0.943
  248EMI    H0B 4701   1.389   7.048   0.973
  248EMI    H0C 4702   1.337   6.885   1.012
  248EMI    H0D 4703   1.354   6.933   0.845
  248EMI    N00 4704   1.186   7.011   0.942
  248EMI    C06 4705   0.933   7.259   0.903
  248EMI    H0F 4706   0.907   7.266   0.799
  248EMI    C0N 4707   0.805   7.250   0.988
  248EMI    H0O 4708   0.745   7.338   0.972
  248EMI    H0P 4709   0.749   7.164   0.959
  248EMI    H0Q 4710   0.831   7.243   1.091
  248EMI    N02 4711   1.014   7.138   0.925
  248EMI    H0E 4712   0.989   7.345   0.932
  249EMI    C01 4713   4.139   0.908   5.657
  249EMI    C04 4714   4.137   1.133   5.664
  249EMI    C03 4715   4.128   1.089   5.790
  249EMI    H07 4716   4.143   0.807   5.622
  249EMI    H09 4717   4.139   1.235   5.632
  249EMI    H08 4718   4.121   1.149   5.879
  249EMI    C05 4719   4.122   0.851   5.897
  249EMI    H0B 4720   4.175   0.761   5.874
  249EMI    H0C 4721   4.166   0.897   5.983
  249EMI    H0D 4722   4.019   0.828   5.917
  249EMI    N00 4723   4.130   0.943   5.782
  249EMI    C06 4724   4.155   1.013   5.434
  249EMI    H0F 4725   4.057   1.012   5.390
  249EMI    C0N 4726   4.230   1.139   5.387
  249EMI    H0O 4727   4.238   1.138   5.280
  249EMI    H0P 4728   4.177   1.226   5.418
  249EMI    H0Q 4729   4.328   1.140   5.430
  249EMI    N02 4730   4.144   1.014   5.580
  249EMI    H0E 4731   4.209   0.925   5.402
  250EMI    C01 4732   7.106   0.495   4.132
  250EMI    C04 4733   7.151   0.632   4.306
  250EMI    C03 4734   7.095   0.521   4.356
  250EMI    H07 4735   7.098   0.455   4.034
  250EMI    H09 4736   7.184   0.718   4.361
  250EMI    H08 4737   7.074   0.500   4.459
  250EMI    C05 4738   7.005   0.301   4.248
  250EMI    H0B 4739   7.042   0.241   4.167
  250EMI    H0C 4740   7.030   0.255   4.341
  250EMI    H0D 4741   6.899   0.311   4.240
  250EMI    N00 4742   7.067   0.435   4.241
  250EMI    C06 4743   7.211   0.709   4.064
  250EMI    H0F 4744   7.133   0.774   4.031
  250EMI    C0N 4745   7.322   0.791   4.131
  250EMI    H0O 4746   7.362   0.861   4.060
  250EMI    H0P 4747   7.282   0.844   4.215
  250EMI    H0Q 4748   7.401   0.726   4.164
  250EMI    N02 4749   7.157   0.612   4.161
  250EMI    H0E 4750   7.251   0.656   3.980
  251EMI    C01 4751   0.262   3.771   6.732
  251EMI    C04 4752   0.459   3.662   6.750
  251EMI    C03 4753   0.370   3.575   6.701
  251EMI    H07 4754   0.186   3.846   6.736
  251EMI    H09 4755   0.562   3.644   6.771
  251EMI    H08 4756   0.388   3.473   6.674
  251EMI    C05 4757   0.117   3.593   6.641
  251EMI    H0B 4758   0.059   3.671   6.595
  251EMI    H0C 4759   0.137   3.517   6.568
  251EMI    H0D 4760   0.062   3.551   6.722
  251EMI    N00 4761   0.244   3.648   6.690
  251EMI    C06 4762   0.443   3.913   6.823
  251EMI    H0F 4763   0.433   3.914   6.929
  251EMI    C0N 4764   0.592   3.921   6.786
  251EMI    H0O 4765   0.634   4.011   6.824
  251EMI    H0P 4766   0.644   3.837   6.828
  251EMI    H0Q 4767   0.603   3.919   6.679
  251EMI    N02 4768   0.386   3.788   6.770
  251EMI    H0E 4769   0.391   3.996   6.781
  252EMI    C01 4770   3.397   2.131   7.382
  252EMI    C04 4771   3.298   2.238   7.554
  252EMI    C03 4772   3.428   2.269   7.558
  252EMI    H07 4773   3.415   2.070   7.296
  252EMI    H09 4774   3.221   2.272   7.621
  252EMI    H08 4775   3.477   2.332   7.630
  252EMI    C05 4776   3.633   2.202   7.411
  252EMI    H0B 4777   3.644   2.189   7.306
  252EMI    H0C 4778   3.674   2.296   7.440
  252EMI    H0D 4779   3.684   2.123   7.462
  252EMI    N00 4780   3.490   2.198   7.446
  252EMI    C06 4781   3.154   2.089   7.395
  252EMI    H0F 4782   3.140   1.995   7.444
  252EMI    C0N 4783   3.038   2.183   7.431
  252EMI    H0O 4784   2.945   2.140   7.398
  252EMI    H0P 4785   3.035   2.198   7.536
  252EMI    H0Q 4786   3.052   2.278   7.382
  252EMI    N02 4787   3.281   2.149   7.439
  252EMI    H0E 4788   3.157   2.074   7.289
  253EMI    C01 4789   7.114   2.661   4.220
  253EMI    C04 4790   7.266   2.549   4.344
  253EMI    C03 4791   7.240   2.475   4.235
  253EMI    H07 4792   7.045   2.736   4.185
  253EMI    H09 4793   7.333   2.526   4.423
  253EMI    H08 4794   7.283   2.380   4.211
  253EMI    C05 4795   7.083   2.507   4.029
  253EMI    H0B 4796   7.059   2.593   3.970
  253EMI    H0C 4797   7.154   2.447   3.976
  253EMI    H0D 4798   6.995   2.450   4.047
  253EMI    N00 4799   7.142   2.550   4.157
  253EMI    C06 4800   7.177   2.780   4.427
  253EMI    H0F 4801   7.101   2.761   4.500
  253EMI    C0N 4802   7.314   2.794   4.498
  253EMI    H0O 4803   7.310   2.874   4.568
  253EMI    H0P 4804   7.336   2.703   4.549
  253EMI    H0Q 4805   7.389   2.813   4.425
  253EMI    N02 4806   7.182   2.669   4.331
  253EMI    H0E 4807   7.155   2.871   4.376
  254EMI    C01 4808   1.723   0.714   1.103
  254EMI    C04 4809   1.794   0.689   0.890
  254EMI    C03 4810   1.776   0.820   0.911
  254EMI    H07 4811   1.692   0.693   1.203
  254EMI    H09 4812   1.828   0.643   0.800
  254EMI    H08 4813   1.792   0.899   0.841
  254EMI    C05 4814   1.697   0.959   1.118
  254EMI    H0B 4815   1.716   0.949   1.223
  254EMI    H0C 4816   1.756   1.038   1.077
  254EMI    H0D 4817   1.593   0.981   1.103
  254EMI    N00 4818   1.730   0.833   1.050
  254EMI    C06 4819   1.764   0.478   1.041
  254EMI    H0F 4820   1.669   0.434   1.015
  254EMI    C0N 4821   1.874   0.415   0.954
  254EMI    H0O 4822   1.878   0.309   0.972
  254EMI    H0P 4823   1.853   0.433   0.851
  254EMI    H0Q 4824   1.969   0.458   0.979
  254EMI    N02 4825   1.759   0.623   1.016
  254EMI    H0E 4826   1.785   0.460   1.144
  255EMI    C01 4827   4.060   6.470   7.319
  255EMI    C04 4828   3.985   6.617   7.165
  255EMI    C03 4829   3.897   6.617   7.266
  255EMI    H07 4830   4.120   6.398   7.370
  255EMI    H09 4831   3.979   6.675   7.075
  255EMI    H08 4832   3.808   6.676   7.274
  255EMI    C05 4833   3.886   6.489   7.493
  255EMI    H0B 4834   3.962   6.462   7.564
  255EMI    H0C 4835   3.833   6.574   7.529
  255EMI    H0D 4836   3.819   6.407   7.480
  255EMI    N00 4837   3.949   6.522   7.364
  255EMI    C06 4838   4.206   6.487   7.120
  255EMI    H0F 4839   4.183   6.405   7.056
  255EMI    C0N 4840   4.247   6.608   7.035
  255EMI    H0O 4841   4.332   6.583   6.975
  255EMI    H0P 4842   4.166   6.636   6.970
  255EMI    H0Q 4843   4.271   6.691   7.099
  255EMI    N02 4844   4.089   6.521   7.202
  255EMI    H0E 4845   4.288   6.460   7.184
  256EMI    C01 4846   6.303   3.230   0.772
  256EMI    C04 4847   6.132   3.105   0.694
  256EMI    C03 4848   6.156   3.065   0.820
  256EMI    H07 4849   6.381   3.302   0.779
  256EMI    H09 4850   6.057   3.066   0.628
  256EMI    H08 4851   6.105   2.988   0.874
  256EMI    C05 4852   6.329   3.140   1.001
  256EMI    H0B 4853   6.366   3.237   1.028
  256EMI    H0C 4854   6.255   3.109   1.072
  256EMI    H0D 4855   6.409   3.070   0.999
  256EMI    N00 4856   6.267   3.148   0.867
  256EMI    C06 4857   6.239   3.286   0.539
  256EMI    H0F 4858   6.307   3.235   0.474
  256EMI    C0N 4859   6.101   3.293   0.472
  256EMI    H0O 4860   6.108   3.347   0.380
  256EMI    H0P 4861   6.065   3.194   0.453
  256EMI    H0Q 4862   6.032   3.343   0.537
  256EMI    N02 4863   6.228   3.212   0.666
  256EMI    H0E 4864   6.274   3.385   0.559
  257EMI    C01 4865   3.413   5.949   0.451
  257EMI    C04 4866   3.432   5.894   0.233
  257EMI    C03 4867   3.537   5.841   0.296
  257EMI    H07 4868   3.378   5.989   0.543
  257EMI    H09 4869   3.409   5.887   0.128
  257EMI    H08 4870   3.616   5.783   0.252
  257EMI    C05 4871   3.615   5.842   0.545
  257EMI    H0B 4872   3.561   5.834   0.637
  257EMI    H0C 4873   3.662   5.748   0.522
  257EMI    H0D 4874   3.690   5.918   0.554
  257EMI    N00 4875   3.522   5.878   0.437
  257EMI    C06 4876   3.228   6.036   0.312
  257EMI    H0F 4877   3.250   6.139   0.290
  257EMI    C0N 4878   3.152   5.973   0.194
  257EMI    H0O 4879   3.061   6.027   0.177
  257EMI    H0P 4880   3.213   5.978   0.106
  257EMI    H0Q 4881   3.130   5.871   0.217
  257EMI    N02 4882   3.353   5.963   0.335
  257EMI    H0E 4883   3.167   6.031   0.400
  258EMI    C01 4884   1.067   2.121   1.013
  258EMI    C04 4885   0.889   1.990   1.057
  258EMI    C03 4886   0.997   1.912   1.061
  258EMI    H07 4887   1.129   2.206   0.991
  258EMI    H09 4888   0.787   1.960   1.073
  258EMI    H08 4889   1.000   1.807   1.081
  258EMI    C05 4890   1.252   1.958   1.027
  258EMI    H0B 4891   1.315   2.039   1.056
  258EMI    H0C 4892   1.267   1.875   1.093
  258EMI    H0D 4893   1.276   1.929   0.927
  258EMI    N00 4894   1.111   2.000   1.033
  258EMI    C06 4895   0.853   2.245   1.011
  258EMI    H0F 4896   0.822   2.255   0.909
  258EMI    C0N 4897   0.728   2.231   1.100
  258EMI    H0O 4898   0.667   2.318   1.089
  258EMI    H0P 4899   0.672   2.144   1.071
  258EMI    H0Q 4900   0.758   2.221   1.203
  258EMI    N02 4901   0.937   2.125   1.026
  258EMI    H0E 4902   0.908   2.331   1.040
  259EMI    C01 4903   0.310   0.570   5.656
  259EMI    C04 4904   0.136   0.692   5.731
  259EMI    C03 4905   0.150   0.588   5.814
  259EMI    H07 4906   0.393   0.535   5.598
  259EMI    H09 4907   0.063   0.770   5.738
  259EMI    H08 4908   0.090   0.565   5.900
  259EMI    C05 4909   0.315   0.386   5.821
  259EMI    H0B 4910   0.420   0.379   5.801
  259EMI    H0C 4911   0.299   0.387   5.927
  259EMI    H0D 4912   0.265   0.302   5.778
  259EMI    N00 4913   0.263   0.510   5.762
  259EMI    C06 4914   0.265   0.770   5.518
  259EMI    H0F 4915   0.207   0.738   5.433
  259EMI    C0N 4916   0.222   0.912   5.558
  259EMI    H0O 4917   0.239   0.979   5.477
  259EMI    H0P 4918   0.118   0.913   5.583
  259EMI    H0Q 4919   0.279   0.944   5.643
  259EMI    N02 4920   0.241   0.678   5.630
  259EMI    H0E 4921   0.369   0.769   5.493
  260EMI    C01 4922   2.907   2.802   0.845
  260EMI    C04 4923   2.890   3.012   0.765
  260EMI    C03 4924   2.797   2.939   0.703
  260EMI    H07 4925   2.938   2.716   0.900
  260EMI    H09 4926   2.910   3.116   0.750
  260EMI    H08 4927   2.727   2.972   0.629
  260EMI    C05 4928   2.728   2.687   0.717
  260EMI    H0B 4929   2.720   2.620   0.800
  260EMI    H0C 4930   2.631   2.721   0.688
  260EMI    H0D 4931   2.775   2.637   0.635
  260EMI    N00 4932   2.810   2.803   0.756
  260EMI    C06 4933   3.070   2.958   0.946
  260EMI    H0F 4934   3.163   2.944   0.895
  260EMI    C0N 4935   3.055   3.105   0.988
  260EMI    H0O 4936   3.136   3.132   1.053
  260EMI    H0P 4937   3.058   3.167   0.901
  260EMI    H0Q 4938   2.962   3.119   1.039
  260EMI    N02 4939   2.959   2.921   0.856
  260EMI    H0E 4940   3.067   2.895   1.032
  261EMI    C01 4941   5.353   5.823   2.508
  261EMI    C04 4942   5.348   6.044   2.464
  261EMI    C03 4943   5.476   6.004   2.454
  261EMI    H07 4944   5.323   5.723   2.532
  261EMI    H09 4945   5.311   6.143   2.450
  261EMI    H08 4946   5.560   6.065   2.429
  261EMI    C05 4947   5.593   5.773   2.483
  261EMI    H0B 4948   5.564   5.674   2.456
  261EMI    H0C 4949   5.665   5.810   2.413
  261EMI    H0D 4950   5.636   5.772   2.581
  261EMI    N00 4951   5.475   5.861   2.483
  261EMI    C06 4952   5.126   5.920   2.521
  261EMI    H0F 4953   5.105   5.939   2.624
  261EMI    C0N 4954   5.057   6.028   2.435
  261EMI    H0O 4955   4.952   6.024   2.451
  261EMI    H0P 4956   5.095   6.124   2.462
  261EMI    H0Q 4957   5.078   6.009   2.331
  261EMI    N02 4958   5.271   5.925   2.499
  261EMI    H0E 4959   5.089   5.824   2.494
  262EMI    C01 4960   5.186   2.070   7.092
  262EMI    C04 4961   5.128   2.216   6.929
  262EMI    C03 4962   5.084   2.266   7.045
  262EMI    H07 4963   5.226   1.986   7.143
  262EMI    H09 4964   5.118   2.259   6.832
  262EMI    H08 4965   5.030   2.357   7.059
  262EMI    C05 4966   5.095   2.182   7.292
  262EMI    H0B 4967   5.173   2.134   7.348
  262EMI    H0C 4968   5.092   2.286   7.318
  262EMI    H0D 4969   5.001   2.136   7.314
  262EMI    N00 4970   5.123   2.169   7.148
  262EMI    C06 4971   5.259   1.998   6.866
  262EMI    H0F 4972   5.187   1.927   6.831
  262EMI    C0N 4973   5.314   2.080   6.748
  262EMI    H0O 4974   5.361   2.013   6.678
  262EMI    H0P 4975   5.233   2.131   6.700
  262EMI    H0Q 4976   5.385   2.151   6.783
  262EMI    N02 4977   5.194   2.089   6.962
  262EMI    H0E 4978   5.339   1.946   6.914
  263EMI    C01 4979   2.652   7.820   6.767
  263EMI    C04 4980   2.626   7.637   6.637
  263EMI    C03 4981   2.602   7.600   6.764
  263EMI    H07 4982   2.671   7.920   6.800
  263EMI    H09 4983   2.622   7.575   6.550
  263EMI    H08 4984   2.576   7.502   6.798
  263EMI    C05 4985   2.605   7.728   6.991
  263EMI    H0B 4986   2.572   7.826   7.018
  263EMI    H0C 4987   2.532   7.656   7.023
  263EMI    H0D 4988   2.699   7.707   7.038
  263EMI    N00 4989   2.620   7.720   6.845
  263EMI    C06 4990   2.691   7.864   6.527
  263EMI    H0F 4991   2.797   7.862   6.510
  263EMI    C0N 4992   2.619   7.811   6.402
  263EMI    H0O 4993   2.643   7.872   6.317
  263EMI    H0P 4994   2.650   7.710   6.383
  263EMI    H0Q 4995   2.513   7.812   6.418
  263EMI    N02 4996   2.658   7.780   6.642
  263EMI    H0E 4997   2.660   7.964   6.546
  264EMI    C01 4998   3.257   7.499   1.610
  264EMI    C04 4999   3.185   7.378   1.433
  264EMI    C03 5000   3.264   7.475   1.385
  264EMI    H07 5001   3.273   7.534   1.709
  264EMI    H09 5002   3.133   7.303   1.376
  264EMI    H08 5003   3.290   7.493   1.283
  264EMI    C05 5004   3.399   7.667   1.498
  264EMI    H0B 5005   3.456   7.671   1.589
  264EMI    H0C 5006   3.466   7.658   1.415
  264EMI    H0D 5007   3.342   7.757   1.489
  264EMI    N00 5008   3.309   7.551   1.502
  264EMI    C06 5009   3.107   7.313   1.673
  264EMI    H0F 5010   3.009   7.354   1.687
  264EMI    C0N 5011   3.095   7.170   1.618
  264EMI    H0O 5012   3.040   7.109   1.687
  264EMI    H0P 5013   3.043   7.172   1.524
  264EMI    H0Q 5014   3.193   7.129   1.604
  264EMI    N02 5015   3.182   7.396   1.578
  264EMI    H0E 5016   3.158   7.311   1.767
  265EMI    C01 5017   4.082   3.627   2.078
  265EMI    C04 5018   4.087   3.409   2.020
  265EMI    C03 5019   3.960   3.439   2.050
  265EMI    H07 5020   4.111   3.728   2.100
  265EMI    H09 5021   4.126   3.314   1.989
  265EMI    H08 5022   3.876   3.373   2.046
  265EMI    C05 5023   3.842   3.658   2.127
  265EMI    H0B 5024   3.855   3.760   2.099
  265EMI    H0C 5025   3.755   3.618   2.079
  265EMI    H0D 5026   3.829   3.651   2.234
  265EMI    N00 5027   3.960   3.581   2.087
  265EMI    C06 5028   4.308   3.548   2.019
  265EMI    H0F 5029   4.360   3.526   2.110
  265EMI    C0N 5030   4.355   3.450   1.909
  265EMI    H0O 5031   4.461   3.462   1.894
  265EMI    H0P 5032   4.334   3.350   1.939
  265EMI    H0Q 5033   4.304   3.472   1.818
  265EMI    N02 5034   4.164   3.533   2.040
  265EMI    H0E 5035   4.330   3.648   1.989
  266EMI    C01 5036   1.232   1.995   6.290
  266EMI    C04 5037   1.451   1.957   6.253
  266EMI    C03 5038   1.438   2.086   6.284
  266EMI    H07 5039   1.126   1.982   6.300
  266EMI    H09 5040   1.542   1.905   6.230
  266EMI    H08 5041   1.517   2.159   6.291
  266EMI    C05 5042   1.234   2.236   6.345
  266EMI    H0B 5043   1.146   2.218   6.404
  266EMI    H0C 5044   1.303   2.295   6.401
  266EMI    H0D 5045   1.206   2.290   6.256
  266EMI    N00 5046   1.295   2.108   6.308
  266EMI    C06 5047   1.280   1.760   6.230
  266EMI    H0F 5048   1.260   1.749   6.126
  266EMI    C0N 5049   1.398   1.669   6.269
  266EMI    H0O 5050   1.372   1.567   6.249
  266EMI    H0P 5051   1.485   1.696   6.212
  266EMI    H0Q 5052   1.419   1.681   6.374
  266EMI    N02 5053   1.316   1.900   6.258
  266EMI    H0E 5054   1.194   1.734   6.287
  267EMI    C01 5055   3.223   0.999   4.496
  267EMI    C04 5056   3.386   1.102   4.379
  267EMI    C03 5057   3.296   1.058   4.291
  267EMI    H07 5058   3.164   0.959   4.576
  267EMI    H09 5059   3.477   1.155   4.358
  267EMI    H08 5060   3.299   1.069   4.184
  267EMI    C05 5061   3.071   0.927   4.315
  267EMI    H0B 5062   2.991   0.934   4.386
  267EMI    H0C 5063   3.042   0.977   4.224
  267EMI    H0D 5064   3.092   0.824   4.294
  267EMI    N00 5065   3.192   0.992   4.369
  267EMI    C06 5066   3.403   1.089   4.639
  267EMI    H0F 5067   3.469   1.009   4.663
  267EMI    C0N 5068   3.484   1.220   4.629
  267EMI    H0O 5069   3.532   1.240   4.722
  267EMI    H0P 5070   3.557   1.210   4.552
  267EMI    H0Q 5071   3.418   1.301   4.605
  267EMI    N02 5072   3.336   1.062   4.511
  267EMI    H0E 5073   3.329   1.099   4.716
  268EMI    C01 5074   0.857   1.897   2.056
  268EMI    C04 5075   0.753   1.699   2.031
  268EMI    C03 5076   0.681   1.790   1.965
  268EMI    H07 5077   0.927   1.973   2.085
  268EMI    H09 5078   0.732   1.594   2.039
  268EMI    H08 5079   0.591   1.773   1.910
  268EMI    C05 5080   0.708   2.047   1.928
  268EMI    H0B 5081   0.794   2.108   1.910
  268EMI    H0C 5082   0.655   2.031   1.837
  268EMI    H0D 5083   0.644   2.096   1.998
  268EMI    N00 5084   0.751   1.917   1.983
  268EMI    C06 5085   0.973   1.711   2.170
  268EMI    H0F 5086   0.946   1.714   2.273
  268EMI    C0N 5087   0.995   1.565   2.127
  268EMI    H0O 5088   1.073   1.522   2.187
  268EMI    H0P 5089   0.905   1.510   2.141
  268EMI    H0Q 5090   1.023   1.562   2.024
  268EMI    N02 5091   0.867   1.771   2.089
  268EMI    H0E 5092   1.064   1.766   2.156
  269EMI    C01 5093   4.742   0.312   0.829
  269EMI    C04 5094   4.827   0.105   0.803
  269EMI    C03 5095   4.695   0.095   0.790
  269EMI    H07 5096   4.733   0.418   0.846
  269EMI    H09 5097   4.899   0.026   0.796
  269EMI    H08 5098   4.638   0.007   0.771
  269EMI    C05 5099   4.501   0.269   0.801
  269EMI    H0B 5100   4.492   0.370   0.766
  269EMI    H0C 5101   4.449   0.204   0.735
  269EMI    H0D 5102   4.458   0.263   0.899
  269EMI    N00 5103   4.642   0.231   0.807
  269EMI    C06 5104   4.989   0.305   0.849
  269EMI    H0F 5105   5.012   0.303   0.954
  269EMI    C0N 5106   5.093   0.223   0.771
  269EMI    H0O 5107   5.190   0.266   0.787
  269EMI    H0P 5108   5.093   0.122   0.806
  269EMI    H0Q 5109   5.070   0.225   0.667
  269EMI    N02 5110   4.855   0.247   0.828
  269EMI    H0E 5111   4.989   0.406   0.815
  270EMI    C01 5112   6.430   1.944   0.582
  270EMI    C04 5113   6.312   1.756   0.621
  270EMI    C03 5114   6.441   1.726   0.637
  270EMI    H07 5115   6.457   2.045   0.558
  270EMI    H09 5116   6.228   1.690   0.632
  270EMI    H08 5117   6.482   1.630   0.663
  270EMI    C05 5118   6.661   1.864   0.616
  270EMI    H0B 5119   6.686   1.964   0.645
  270EMI    H0C 5120   6.702   1.795   0.688
  270EMI    H0D 5121   6.703   1.843   0.520
  270EMI    N00 5122   6.515   1.849   0.611
  270EMI    C06 5123   6.186   1.977   0.559
  270EMI    H0F 5124   6.163   1.971   0.455
  270EMI    C0N 5125   6.069   1.919   0.641
  270EMI    H0O 5126   5.981   1.976   0.621
  270EMI    H0P 5127   6.053   1.817   0.613
  270EMI    H0Q 5128   6.092   1.925   0.745
  270EMI    N02 5129   6.308   1.898   0.586
  270EMI    H0E 5130   6.202   2.079   0.587
  271EMI    C01 5131   2.629   3.632   3.558
  271EMI    C04 5132   2.498   3.815   3.537
  271EMI    C03 5133   2.625   3.856   3.525
  271EMI    H07 5134   2.663   3.532   3.572
  271EMI    H09 5135   2.410   3.875   3.533
  271EMI    H08 5136   2.659   3.956   3.509
  271EMI    C05 5137   2.854   3.732   3.533
  271EMI    H0B 5138   2.886   3.637   3.495
  271EMI    H0C 5139   2.889   3.810   3.469
  271EMI    H0D 5140   2.895   3.745   3.631
  271EMI    N00 5141   2.708   3.735   3.539
  271EMI    C06 5142   2.388   3.581   3.577
  271EMI    H0F 5143   2.365   3.574   3.681
  271EMI    C0N 5144   2.267   3.638   3.501
  271EMI    H0O 5145   2.183   3.574   3.515
  271EMI    H0P 5146   2.244   3.735   3.539
  271EMI    H0Q 5147   2.291   3.645   3.397
  271EMI    N02 5148   2.504   3.670   3.559
  271EMI    H0E 5149   2.412   3.484   3.540
  272EMI    C01 5150   4.387   1.289   6.202
  272EMI    C04 5151   4.420   1.121   6.055
  272EMI    C03 5152   4.331   1.078   6.145
  272EMI    H07 5153   4.393   1.383   6.253
  272EMI    H09 5154   4.458   1.067   5.971
  272EMI    H08 5155   4.283   0.983   6.148
  272EMI    C05 5156   4.222   1.188   6.356
  272EMI    H0B 5157   4.187   1.288   6.375
  272EMI    H0C 5158   4.139   1.124   6.336
  272EMI    H0D 5159   4.276   1.152   6.441
  272EMI    N00 5160   4.312   1.189   6.239
  272EMI    C06 5161   4.549   1.346   6.024
  272EMI    H0F 5162   4.648   1.331   6.064
  272EMI    C0N 5163   4.550   1.311   5.874
  272EMI    H0O 5164   4.619   1.375   5.823
  272EMI    H0P 5165   4.579   1.209   5.861
  272EMI    H0Q 5166   4.452   1.326   5.834
  272EMI    N02 5167   4.455   1.258   6.094
  272EMI    H0E 5168   4.520   1.448   6.037
  273EMI    C01 5169   5.880   2.569   1.696
  273EMI    C04 5170   5.988   2.404   1.805
  273EMI    C03 5171   5.939   2.351   1.692
  273EMI    H07 5172   5.838   2.664   1.670
  273EMI    H09 5173   6.045   2.353   1.880
  273EMI    H08 5174   5.948   2.250   1.659
  273EMI    C05 5175   5.799   2.450   1.495
  273EMI    H0B 5176   5.803   2.544   1.445
  273EMI    H0C 5177   5.846   2.375   1.435
  273EMI    H0D 5178   5.697   2.423   1.512
  273EMI    N00 5179   5.869   2.461   1.624
  273EMI    C06 5180   5.980   2.643   1.910
  273EMI    H0F 5181   5.903   2.643   1.984
  273EMI    C0N 5182   6.114   2.606   1.975
  273EMI    H0O 5183   6.138   2.677   2.052
  273EMI    H0P 5184   6.107   2.508   2.019
  273EMI    H0Q 5185   6.192   2.606   1.902
  273EMI    N02 5186   5.948   2.545   1.805
  273EMI    H0E 5187   5.988   2.740   1.866
  274EMI    C01 5188   6.967   6.731   0.972
  274EMI    C04 5189   7.058   6.577   1.110
  274EMI    C03 5190   7.139   6.589   1.004
  274EMI    H07 5191   6.901   6.804   0.931
  274EMI    H09 5192   7.072   6.512   1.194
  274EMI    H08 5193   7.231   6.536   0.986
  274EMI    C05 5194   7.131   6.735   0.788
  274EMI    H0B 5195   7.102   6.837   0.771
  274EMI    H0C 5196   7.238   6.729   0.789
  274EMI    H0D 5197   7.093   6.674   0.709
  274EMI    N00 5198   7.078   6.689   0.917
  274EMI    C06 5199   6.834   6.691   1.177
  274EMI    H0F 5200   6.755   6.624   1.151
  274EMI    C0N 5201   6.878   6.666   1.322
  274EMI    H0O 5202   6.795   6.682   1.388
  274EMI    H0P 5203   6.913   6.565   1.332
  274EMI    H0Q 5204   6.957   6.733   1.348
  274EMI    N02 5205   6.947   6.670   1.087
  274EMI    H0E 5206   6.799   6.792   1.167
  275EMI    C01 5207   4.435   7.554   3.896
  275EMI    C04 5208   4.248   7.643   3.807
  275EMI    C03 5209   4.346   7.733   3.791
  275EMI    H07 5210   4.504   7.488   3.945
  275EMI    H09 5211   4.146   7.653   3.776
  275EMI    H08 5212   4.338   7.829   3.744
  275EMI    C05 5213   4.599   7.735   3.855
  275EMI    H0B 5214   4.674   7.658   3.852
  275EMI    H0C 5215   4.612   7.800   3.771
  275EMI    H0D 5216   4.609   7.791   3.945
  275EMI    N00 5217   4.466   7.672   3.849
  275EMI    C06 5218   4.239   7.406   3.915
  275EMI    H0F 5219   4.199   7.417   4.013
  275EMI    C0N 5220   4.124   7.378   3.816
  275EMI    H0O 5221   4.073   7.288   3.844
  275EMI    H0P 5222   4.055   7.460   3.817
  275EMI    H0Q 5223   4.164   7.367   3.717
  275EMI    N02 5224   4.309   7.529   3.876
  275EMI    H0E 5225   4.308   7.324   3.913
  276EMI    C01 5226   6.886   6.543   3.089
  276EMI    C04 5227   7.034   6.656   3.217
  276EMI    C03 5228   6.911   6.694   3.255
  276EMI    H07 5229   6.843   6.478   3.016
  276EMI    H09 5230   7.127   6.690   3.257
  276EMI    H08 5231   6.886   6.765   3.331
  276EMI    C05 5232   6.671   6.629   3.175
  276EMI    H0B 5233   6.628   6.536   3.146
  276EMI    H0C 5234   6.641   6.653   3.275
  276EMI    H0D 5235   6.638   6.706   3.108
  276EMI    N00 5236   6.818   6.620   3.170
  276EMI    C06 5237   7.122   6.488   3.037
  276EMI    H0F 5238   7.150   6.546   2.952
  276EMI    C0N 5239   7.243   6.471   3.130
  276EMI    H0O 5240   7.321   6.420   3.077
  276EMI    H0P 5241   7.278   6.567   3.161
  276EMI    H0Q 5242   7.215   6.414   3.216
  276EMI    N02 5243   7.014   6.558   3.110
  276EMI    H0E 5244   7.087   6.392   3.006
  277EMI    C01 5245   7.128   1.145   2.555
  277EMI    C04 5246   7.023   1.019   2.710
  277EMI    C03 5247   7.146   0.969   2.696
  277EMI    H07 5248   7.150   1.219   2.482
  277EMI    H09 5249   6.946   0.983   2.776
  277EMI    H08 5250   7.188   0.886   2.748
  277EMI    C05 5251   7.350   1.036   2.547
  277EMI    H0B 5252   7.389   1.131   2.518
  277EMI    H0C 5253   7.410   0.994   2.625
  277EMI    H0D 5254   7.350   0.970   2.463
  277EMI    N00 5255   7.212   1.053   2.595
  277EMI    C06 5256   6.896   1.218   2.598
  277EMI    H0F 5257   6.834   1.177   2.521
  277EMI    C0N 5258   6.816   1.225   2.730
  277EMI    H0O 5259   6.730   1.288   2.716
  277EMI    H0P 5260   6.784   1.127   2.758
  277EMI    H0Q 5261   6.878   1.266   2.807
  277EMI    N02 5262   7.014   1.132   2.618
  277EMI    H0E 5263   6.928   1.316   2.570
  278EMI    C01 5264   3.550   3.909   7.742
  278EMI    C04 5265   3.697   3.801   7.609
  278EMI    C03 5266   3.706   3.931   7.581
  278EMI    H07 5267   3.474   3.930   7.815
  278EMI    H09 5268   3.752   3.721   7.564
  278EMI    H08 5269   3.771   3.977   7.509
  278EMI    C05 5270   3.585   4.143   7.673
  278EMI    H0B 5271   3.555   4.171   7.772
  278EMI    H0C 5272   3.675   4.196   7.647
  278EMI    H0D 5273   3.508   4.168   7.603
  278EMI    N00 5274   3.610   3.998   7.668
  278EMI    C06 5275   3.550   3.664   7.776
  278EMI    H0F 5276   3.468   3.623   7.721
  278EMI    C0N 5277   3.666   3.563   7.777
  278EMI    H0O 5278   3.634   3.472   7.822
  278EMI    H0P 5279   3.697   3.543   7.676
  278EMI    H0Q 5280   3.748   3.603   7.832
  278EMI    N02 5281   3.595   3.789   7.713
  278EMI    H0E 5282   3.519   3.683   7.877
  279EMI    C01 5283   6.475   4.505   2.725
  279EMI    C04 5284   6.611   4.547   2.549
  279EMI    C03 5285   6.689   4.533   2.657
  279EMI    H07 5286   6.389   4.487   2.785
  279EMI    H09 5287   6.642   4.568   2.449
  279EMI    H08 5288   6.795   4.540   2.661
  279EMI    C05 5289   6.640   4.483   2.908
  279EMI    H0B 5290   6.569   4.417   2.956
  279EMI    H0C 5291   6.737   4.438   2.910
  279EMI    H0D 5292   6.642   4.576   2.961
  279EMI    N00 5293   6.598   4.506   2.769
  279EMI    C06 5294   6.353   4.535   2.513
  279EMI    H0F 5295   6.316   4.636   2.511
  279EMI    C0N 5296   6.387   4.490   2.369
  279EMI    H0O 5297   6.299   4.495   2.308
  279EMI    H0P 5298   6.462   4.555   2.329
  279EMI    H0Q 5299   6.424   4.390   2.371
  279EMI    N02 5300   6.473   4.529   2.596
  279EMI    H0E 5301   6.277   4.471   2.553
  280EMI    C01 5302   0.646   1.192   5.540
  280EMI    C04 5303   0.445   1.286   5.584
  280EMI    C03 5304   0.476   1.208   5.688
  280EMI    H07 5305   0.738   1.165   5.493
  280EMI    H09 5306   0.357   1.345   5.571
  280EMI    H08 5307   0.417   1.192   5.776
  280EMI    C05 5308   0.681   1.056   5.744
  280EMI    H0B 5309   0.786   1.068   5.727
  280EMI    H0C 5310   0.657   1.076   5.846
  280EMI    H0D 5311   0.653   0.955   5.720
  280EMI    N00 5312   0.607   1.149   5.657
  280EMI    C06 5313   0.568   1.342   5.360
  280EMI    H0F 5314   0.524   1.280   5.284
  280EMI    C0N 5315   0.493   1.476   5.366
  280EMI    H0O 5316   0.500   1.526   5.272
  280EMI    H0P 5317   0.390   1.459   5.389
  280EMI    H0Q 5318   0.536   1.538   5.442
  280EMI    N02 5319   0.557   1.274   5.490
  280EMI    H0E 5320   0.671   1.360   5.337
  281EMI    C01 5321   3.223   4.043   2.736
  281EMI    C04 5322   3.315   3.876   2.858
  281EMI    C03 5323   3.191   3.838   2.826
  281EMI    H07 5324   3.209   4.135   2.683
  281EMI    H09 5325   3.387   3.821   2.915
  281EMI    H08 5326   3.143   3.746   2.853
  281EMI    C05 5327   2.999   3.951   2.690
  281EMI    H0B 5328   2.999   4.009   2.600
  281EMI    H0C 5329   2.967   3.851   2.667
  281EMI    H0D 5330   2.931   3.994   2.760
  281EMI    N00 5331   3.134   3.948   2.747
  281EMI    C06 5332   3.455   4.091   2.807
  281EMI    H0F 5333   3.450   4.153   2.893
  281EMI    C0N 5334   3.578   3.998   2.817
  281EMI    H0O 5335   3.667   4.058   2.824
  281EMI    H0P 5336   3.570   3.938   2.905
  281EMI    H0Q 5337   3.583   3.936   2.731
  281EMI    N02 5338   3.333   4.009   2.798
  281EMI    H0E 5339   3.464   4.151   2.719
  282EMI    C01 5340   4.136   7.049   5.127
  282EMI    C04 5341   4.098   7.259   5.201
  282EMI    C03 5342   3.990   7.187   5.230
  282EMI    H07 5343   4.181   6.963   5.083
  282EMI    H09 5344   4.114   7.363   5.222
  282EMI    H08 5345   3.901   7.220   5.280
  282EMI    C05 5346   3.925   6.937   5.191
  282EMI    H0B 5347   3.982   6.846   5.197
  282EMI    H0C 5348   3.864   6.947   5.278
  282EMI    H0D 5349   3.863   6.933   5.104
  282EMI    N00 5350   4.017   7.051   5.181
  282EMI    C06 5351   4.324   7.203   5.084
  282EMI    H0F 5352   4.317   7.236   4.982
  282EMI    C0N 5353   4.384   7.316   5.170
  282EMI    H0O 5354   4.481   7.341   5.133
  282EMI    H0P 5355   4.320   7.401   5.165
  282EMI    H0Q 5356   4.392   7.283   5.272
  282EMI    N02 5357   4.191   7.167   5.134
  282EMI    H0E 5358   4.388   7.117   5.088
  283EMI    C01 5359   3.882   0.091   3.272
  283EMI    C04 5360   3.806   0.274   3.381
  283EMI    C03 5361   3.754   0.277   3.258
  283EMI    H07 5362   3.932  -0.001   3.249
  283EMI    H09 5363   3.790   0.345   3.459
  283EMI    H08 5364   3.689   0.351   3.217
  283EMI    C05 5365   3.775   0.118   3.051
  283EMI    H0B 5366   3.778   0.011   3.043
  283EMI    H0C 5367   3.678   0.153   3.025
  283EMI    H0D 5368   3.848   0.161   2.985
  283EMI    N00 5369   3.805   0.157   3.190
  283EMI    C06 5370   3.964   0.107   3.505
  283EMI    H0F 5371   4.063   0.149   3.501
  283EMI    C0N 5372   3.894   0.154   3.633
  283EMI    H0O 5373   3.949   0.121   3.719
  283EMI    H0P 5374   3.888   0.261   3.634
  283EMI    H0Q 5375   3.795   0.113   3.637
  283EMI    N02 5376   3.888   0.152   3.388
  283EMI    H0E 5377   3.970   0.001   3.504
  284EMI    C01 5378   3.284   0.249   4.786
  284EMI    C04 5379   3.469   0.189   4.670
  284EMI    C03 5380   3.373   0.100   4.642
  284EMI    H07 5381   3.217   0.302   4.850
  284EMI    H09 5382   3.569   0.190   4.633
  284EMI    H08 5383   3.381   0.015   4.577
  284EMI    C05 5384   3.125   0.073   4.719
  284EMI    H0B 5385   3.047   0.145   4.736
  284EMI    H0C 5386   3.109   0.026   4.624
  284EMI    H0D 5387   3.123  -0.000   4.796
  284EMI    N00 5388   3.255   0.142   4.718
  284EMI    C06 5389   3.477   0.400   4.823
  284EMI    H0F 5390   3.523   0.372   4.915
  284EMI    C0N 5391   3.584   0.452   4.725
  284EMI    H0O 5392   3.633   0.537   4.768
  284EMI    H0P 5393   3.655   0.375   4.706
  284EMI    H0Q 5394   3.537   0.481   4.633
  284EMI    N02 5395   3.408   0.284   4.764
  284EMI    H0E 5396   3.405   0.478   4.841
  285EMI    C01 5397   5.946   3.066   3.069
  285EMI    C04 5398   6.031   2.862   3.116
  285EMI    C03 5399   6.133   2.941   3.080
  285EMI    H07 5400   5.878   3.147   3.054
  285EMI    H09 5401   6.037   2.759   3.145
  285EMI    H08 5402   6.237   2.914   3.075
  285EMI    C05 5403   6.149   3.191   3.006
  285EMI    H0B 5404   6.099   3.279   3.040
  285EMI    H0C 5405   6.248   3.188   3.047
  285EMI    H0D 5406   6.155   3.192   2.900
  285EMI    N00 5407   6.075   3.072   3.050
  285EMI    C06 5408   5.774   2.901   3.138
  285EMI    H0F 5409   5.728   2.863   3.050
  285EMI    C0N 5410   5.778   2.791   3.246
  285EMI    H0O 5411   5.679   2.759   3.268
  285EMI    H0P 5412   5.835   2.708   3.209
  285EMI    H0Q 5413   5.824   2.830   3.334
  285EMI    N02 5414   5.911   2.946   3.108
  285EMI    H0E 5415   5.717   2.984   3.175
  286EMI    C01 5416   1.279   1.983   1.814
  286EMI    C04 5417   1.311   1.985   2.038
  286EMI    C03 5418   1.277   1.860   2.003
  286EMI    H07 5419   1.271   2.013   1.712
  286EMI    H09 5420   1.333   2.021   2.136
  286EMI    H08 5421   1.266   1.776   2.069
  286EMI    C05 5422   1.219   1.746   1.776
  286EMI    H0B 5423   1.260   1.758   1.677
  286EMI    H0C 5424   1.256   1.657   1.820
  286EMI    H0D 5425   1.112   1.741   1.769
  286EMI    N00 5426   1.257   1.862   1.858
  286EMI    C06 5427   1.343   2.205   1.902
  286EMI    H0F 5428   1.253   2.262   1.913
  286EMI    C0N 5429   1.443   2.245   2.012
  286EMI    H0O 5430   1.466   2.349   2.003
  286EMI    H0P 5431   1.399   2.225   2.108
  286EMI    H0Q 5432   1.532   2.188   2.001
  286EMI    N02 5433   1.311   2.062   1.913
  286EMI    H0E 5434   1.386   2.224   1.806
  287EMI    C01 5435   3.918   4.249   5.343
  287EMI    C04 5436   3.943   4.470   5.378
  287EMI    C03 5437   3.812   4.443   5.389
  287EMI    H07 5438   3.938   4.146   5.323
  287EMI    H09 5439   3.990   4.566   5.389
  287EMI    H08 5440   3.734   4.512   5.410
  287EMI    C05 5441   3.673   4.223   5.367
  287EMI    H0B 5442   3.693   4.123   5.399
  287EMI    H0C 5443   3.605   4.269   5.434
  287EMI    H0D 5444   3.631   4.222   5.269
  287EMI    N00 5445   3.799   4.299   5.365
  287EMI    C06 5446   4.153   4.324   5.329
  287EMI    H0F 5447   4.177   4.336   5.225
  287EMI    C0N 5448   4.231   4.428   5.412
  287EMI    H0O 5449   4.336   4.414   5.397
  287EMI    H0P 5450   4.203   4.526   5.380
  287EMI    H0Q 5451   4.207   4.415   5.516
  287EMI    N02 5452   4.009   4.343   5.349
  287EMI    H0E 5453   4.181   4.225   5.360
  288EMI    C01 5454   5.794   3.928   3.491
  288EMI    C04 5455   5.599   4.002   3.406
  288EMI    C03 5456   5.625   3.884   3.348
  288EMI    H07 5457   5.885   3.920   3.548
  288EMI    H09 5458   5.514   4.065   3.388
  288EMI    H08 5459   5.566   3.834   3.275
  288EMI    C05 5460   5.821   3.713   3.371
  288EMI    H0B 5461   5.877   3.679   3.456
  288EMI    H0C 5462   5.749   3.640   3.344
  288EMI    H0D 5463   5.888   3.730   3.290
  288EMI    N00 5464   5.752   3.839   3.405
  288EMI    C06 5465   5.724   4.146   3.584
  288EMI    H0F 5466   5.778   4.222   3.531
  288EMI    C0N 5467   5.585   4.199   3.622
  288EMI    H0O 5468   5.595   4.285   3.685
  288EMI    H0P 5469   5.531   4.225   3.533
  288EMI    H0Q 5470   5.531   4.123   3.675
  288EMI    N02 5471   5.710   4.028   3.498
  288EMI    H0E 5472   5.778   4.120   3.672
  289EMI    C01 5473   1.520   5.088   1.750
  289EMI    C04 5474   1.302   5.141   1.776
  289EMI    C03 5475   1.361   5.244   1.715
  289EMI    H07 5476   1.613   5.036   1.752
  289EMI    H09 5477   1.199   5.132   1.804
  289EMI    H08 5478   1.314   5.335   1.684
  289EMI    C05 5479   1.605   5.290   1.637
  289EMI    H0B 5480   1.680   5.228   1.592
  289EMI    H0C 5481   1.561   5.353   1.562
  289EMI    H0D 5482   1.652   5.352   1.712
  289EMI    N00 5483   1.502   5.207   1.700
  289EMI    C06 5484   1.389   4.910   1.862
  289EMI    H0F 5485   1.406   4.919   1.967
  289EMI    C0N 5486   1.246   4.859   1.836
  289EMI    H0O 5487   1.233   4.764   1.883
  289EMI    H0P 5488   1.176   4.929   1.877
  289EMI    H0Q 5489   1.230   4.850   1.731
  289EMI    N02 5490   1.407   5.041   1.798
  289EMI    H0E 5491   1.460   4.840   1.821
  290EMI    C01 5492   7.012   5.676   3.544
  290EMI    C04 5493   7.024   5.479   3.654
  290EMI    C03 5494   7.145   5.535   3.661
  290EMI    H07 5495   6.976   5.759   3.487
  290EMI    H09 5496   6.994   5.385   3.696
  290EMI    H08 5497   7.232   5.496   3.709
  290EMI    C05 5498   7.244   5.759   3.569
  290EMI    H0B 5499   7.203   5.858   3.563
  290EMI    H0C 5500   7.311   5.754   3.652
  290EMI    H0D 5501   7.296   5.736   3.479
  290EMI    N00 5502   7.135   5.662   3.588
  290EMI    C06 5503   6.798   5.552   3.545
  290EMI    H0F 5504   6.790   5.501   3.452
  290EMI    C0N 5505   6.731   5.468   3.655
  290EMI    H0O 5506   6.628   5.454   3.632
  290EMI    H0P 5507   6.780   5.373   3.663
  290EMI    H0Q 5508   6.739   5.519   3.749
  290EMI    N02 5509   6.940   5.572   3.578
  290EMI    H0E 5510   6.750   5.647   3.538
  291EMI    C01 5511   4.615   4.304   1.749
  291EMI    C04 5512   4.396   4.352   1.726
  291EMI    C03 5513   4.461   4.468   1.740
  291EMI    H07 5514   4.708   4.251   1.757
  291EMI    H09 5515   4.290   4.339   1.714
  291EMI    H08 5516   4.418   4.566   1.740
  291EMI    C05 5517   4.713   4.530   1.772
  291EMI    H0B 5518   4.802   4.489   1.730
  291EMI    H0C 5519   4.688   4.622   1.723
  291EMI    H0D 5520   4.728   4.548   1.877
  291EMI    N00 5521   4.603   4.434   1.755
  291EMI    C06 5522   4.473   4.103   1.723
  291EMI    H0F 5523   4.455   4.063   1.820
  291EMI    C0N 5524   4.350   4.078   1.634
  291EMI    H0O 5525   4.332   3.973   1.626
  291EMI    H0P 5526   4.264   4.126   1.677
  291EMI    H0Q 5527   4.367   4.119   1.536
  291EMI    N02 5528   4.498   4.247   1.733
  291EMI    H0E 5529   4.558   4.055   1.679
  292EMI    C01 5530   7.644   0.484   4.944
  292EMI    C04 5531   7.827   0.354   4.969
  292EMI    C03 5532   7.867   0.482   4.975
  292EMI    H07 5533   7.543   0.517   4.929
  292EMI    H09 5534   7.888   0.267   4.978
  292EMI    H08 5535   7.968   0.516   4.989
  292EMI    C05 5536   7.743   0.710   4.958
  292EMI    H0B 5537   7.648   0.743   4.995
  292EMI    H0C 5538   7.821   0.748   5.020
  292EMI    H0D 5539   7.756   0.746   4.858
  292EMI    N00 5540   7.747   0.563   4.958
  292EMI    C06 5541   7.593   0.243   4.936
  292EMI    H0F 5542   7.586   0.214   4.833
  292EMI    C0N 5543   7.651   0.125   5.017
  292EMI    H0O 5544   7.586   0.040   5.008
  292EMI    H0P 5545   7.748   0.100   4.980
  292EMI    H0Q 5546   7.658   0.153   5.120
  292EMI    N02 5547   7.682   0.359   4.949
  292EMI    H0E 5548   7.496   0.267   4.973
  293EMI    C01 5549   1.053   3.519   5.896
  293EMI    C04 5550   1.026   3.312   5.982
  293EMI    C03 5551   1.107   3.379   6.065
  293EMI    H07 5552   1.047   3.605   5.833
  293EMI    H09 5553   0.992   3.211   5.992
  293EMI    H08 5554   1.151   3.342   6.155
  293EMI    C05 5555   1.204   3.621   6.064
  293EMI    H0B 5556   1.160   3.715   6.037
  293EMI    H0C 5557   1.206   3.612   6.170
  293EMI    H0D 5558   1.303   3.615   6.025
  293EMI    N00 5559   1.123   3.512   6.007
  293EMI    C06 5560   0.906   3.376   5.759
  293EMI    H0F 5561   0.965   3.337   5.678
  293EMI    C0N 5562   0.800   3.272   5.800
  293EMI    H0O 5563   0.736   3.251   5.716
  293EMI    H0P 5564   0.848   3.182   5.832
  293EMI    H0Q 5565   0.741   3.311   5.880
  293EMI    N02 5566   0.993   3.405   5.873
  293EMI    H0E 5567   0.857   3.466   5.727
  294EMI    C01 5568   6.568   6.157   0.835
  294EMI    C04 5569   6.362   6.066   0.815
  294EMI    C03 5570   6.349   6.198   0.798
  294EMI    H07 5571   6.673   6.169   0.849
  294EMI    H09 5572   6.285   5.992   0.811
  294EMI    H08 5573   6.259   6.251   0.779
  294EMI    C05 5574   6.518   6.397   0.802
  294EMI    H0B 5575   6.618   6.406   0.764
  294EMI    H0C 5576   6.450   6.445   0.735
  294EMI    H0D 5577   6.512   6.442   0.898
  294EMI    N00 5578   6.484   6.254   0.812
  294EMI    C06 5579   6.568   5.911   0.862
  294EMI    H0F 5580   6.568   5.890   0.967
  294EMI    C0N 5581   6.488   5.802   0.788
  294EMI    H0O 5582   6.533   5.707   0.805
  294EMI    H0P 5583   6.387   5.801   0.825
  294EMI    H0Q 5584   6.487   5.823   0.683
  294EMI    N02 5585   6.505   6.042   0.839
  294EMI    H0E 5586   6.668   5.912   0.826
  295EMI    C01 5587   5.763   5.884   0.329
  295EMI    C04 5588   5.985   5.912   0.358
  295EMI    C03 5589   5.926   5.938   0.475
  295EMI    H07 5590   5.667   5.864   0.286
  295EMI    H09 5591   6.089   5.917   0.336
  295EMI    H08 5592   5.975   5.966   0.566
  295EMI    C05 5593   5.678   5.935   0.556
  295EMI    H0B 5594   5.596   5.870   0.534
  295EMI    H0C 5595   5.718   5.912   0.652
  295EMI    H0D 5596   5.643   6.037   0.555
  295EMI    N00 5597   5.783   5.919   0.454
  295EMI    C06 5598   5.893   5.842   0.124
  295EMI    H0F 5599   5.888   5.931   0.064
  295EMI    C0N 5600   6.030   5.775   0.103
  295EMI    H0O 5601   6.042   5.749   0.000
  295EMI    H0P 5602   6.108   5.842   0.132
  295EMI    H0Q 5603   6.035   5.686   0.163
  295EMI    N02 5604   5.876   5.878   0.265
  295EMI    H0E 5605   5.815   5.775   0.094
  296EMI    C01 5606   1.748   6.803   3.101
  296EMI    C04 5607   1.766   6.583   3.152
  296EMI    C03 5608   1.868   6.614   3.070
  296EMI    H07 5609   1.714   6.904   3.096
  296EMI    H09 5610   1.744   6.488   3.195
  296EMI    H08 5611   1.944   6.547   3.035
  296EMI    C05 5612   1.943   6.834   2.953
  296EMI    H0B 5613   1.945   6.936   2.986
  296EMI    H0C 5614   2.042   6.793   2.958
  296EMI    H0D 5615   1.908   6.830   2.852
  296EMI    N00 5616   1.853   6.756   3.039
  296EMI    C06 5617   1.569   6.723   3.252
  296EMI    H0F 5618   1.483   6.704   3.192
  296EMI    C0N 5619   1.574   6.623   3.369
  296EMI    H0O 5620   1.486   6.634   3.429
  296EMI    H0P 5621   1.578   6.523   3.331
  296EMI    H0Q 5622   1.660   6.642   3.429
  296EMI    N02 5623   1.690   6.708   3.170
  296EMI    H0E 5624   1.565   6.823   3.290
  297EMI    C01 5625   3.544   1.658   4.631
  297EMI    C04 5626   3.643   1.513   4.489
  297EMI    C03 5627   3.513   1.517   4.458
  297EMI    H07 5628   3.527   1.729   4.709
  297EMI    H09 5629   3.719   1.454   4.442
  297EMI    H08 5630   3.464   1.462   4.380
  297EMI    C05 5631   3.309   1.649   4.554
  297EMI    H0B 5632   3.299   1.749   4.590
  297EMI    H0C 5633   3.269   1.641   4.455
  297EMI    H0D 5634   3.257   1.582   4.619
  297EMI    N00 5635   3.452   1.612   4.551
  297EMI    C06 5636   3.787   1.634   4.671
  297EMI    H0F 5637   3.799   1.566   4.752
  297EMI    C0N 5638   3.904   1.618   4.572
  297EMI    H0O 5639   3.996   1.639   4.622
  297EMI    H0P 5640   3.905   1.518   4.534
  297EMI    H0Q 5641   3.891   1.687   4.490
  297EMI    N02 5642   3.660   1.605   4.602
  297EMI    H0E 5643   3.785   1.734   4.708
  298EMI    C01 5644   4.865   0.309   5.787
  298EMI    C04 5645   5.006   0.228   5.630
  298EMI    C03 5646   4.933   0.125   5.675
  298EMI    H07 5647   4.813   0.375   5.853
  298EMI    H09 5648   5.083   0.225   5.556
  298EMI    H08 5649   4.939   0.023   5.643
  298EMI    C05 5650   4.743   0.105   5.853
  298EMI    H0B 5651   4.660   0.168   5.877
  298EMI    H0C 5652   4.708   0.022   5.794
  298EMI    H0D 5653   4.787   0.068   5.943
  298EMI    N00 5654   4.842   0.181   5.776
  298EMI    C06 5655   5.012   0.483   5.689
  298EMI    H0F 5656   5.093   0.497   5.757
  298EMI    C0N 5657   5.061   0.503   5.545
  298EMI    H0O 5658   5.098   0.602   5.534
  298EMI    H0P 5659   5.138   0.432   5.523
  298EMI    H0Q 5660   4.979   0.488   5.477
  298EMI    N02 5661   4.960   0.346   5.705
  298EMI    H0E 5662   4.934   0.553   5.711
  299EMI    C01 5663   3.441   6.517   1.130
  299EMI    C04 5664   3.448   6.740   1.102
  299EMI    C03 5665   3.478   6.685   0.984
  299EMI    H07 5666   3.431   6.419   1.173
  299EMI    H09 5667   3.441   6.845   1.125
  299EMI    H08 5668   3.501   6.736   0.893
  299EMI    C05 5669   3.499   6.438   0.903
  299EMI    H0B 5670   3.442   6.350   0.924
  299EMI    H0C 5671   3.472   6.476   0.806
  299EMI    H0D 5672   3.603   6.414   0.903
  299EMI    N00 5673   3.473   6.540   1.005
  299EMI    C06 5674   3.388   6.642   1.336
  299EMI    H0F 5675   3.477   6.645   1.396
  299EMI    C0N 5676   3.307   6.771   1.358
  299EMI    H0O 5677   3.281   6.780   1.461
  299EMI    H0P 5678   3.367   6.855   1.328
  299EMI    H0Q 5679   3.218   6.768   1.298
  299EMI    N02 5680   3.424   6.629   1.194
  299EMI    H0E 5681   3.329   6.557   1.366
  300EMI    C01 5682   2.691   3.583   0.722
  300EMI    C04 5683   2.757   3.757   0.849
  300EMI    C03 5684   2.641   3.712   0.900
  300EMI    H07 5685   2.688   3.508   0.646
  300EMI    H09 5686   2.816   3.839   0.885
  300EMI    H08 5687   2.589   3.751   0.985
  300EMI    C05 5688   2.480   3.518   0.832
  300EMI    H0B 5689   2.498   3.419   0.797
  300EMI    H0C 5690   2.454   3.515   0.936
  300EMI    H0D 5691   2.400   3.562   0.777
  300EMI    N00 5692   2.602   3.599   0.815
  300EMI    C06 5693   2.905   3.683   0.647
  300EMI    H0F 5694   2.882   3.749   0.566
  300EMI    C0N 5695   3.023   3.740   0.728
  300EMI    H0O 5696   3.109   3.748   0.664
  300EMI    H0P 5697   2.997   3.836   0.766
  300EMI    H0Q 5698   3.045   3.674   0.809
  300EMI    N02 5699   2.787   3.672   0.734
  300EMI    H0E 5700   2.930   3.587   0.608
  301EMI    C01 5701   3.001   6.130   2.703
  301EMI    C04 5702   3.041   6.193   2.916
  301EMI    C03 5703   2.994   6.068   2.920
  301EMI    H07 5704   2.993   6.130   2.597
  301EMI    H09 5705   3.069   6.254   3.000
  301EMI    H08 5706   2.978   6.008   3.007
  301EMI    C05 5707   2.918   5.899   2.736
  301EMI    H0B 5708   2.957   5.878   2.639
  301EMI    H0C 5709   2.949   5.823   2.804
  301EMI    H0D 5710   2.811   5.903   2.732
  301EMI    N00 5711   2.970   6.030   2.781
  301EMI    C06 5712   3.088   6.361   2.722
  301EMI    H0F 5713   3.005   6.427   2.716
  301EMI    C0N 5714   3.195   6.421   2.815
  301EMI    H0O 5715   3.227   6.515   2.776
  301EMI    H0P 5716   3.153   6.434   2.913
  301EMI    H0Q 5717   3.279   6.354   2.821
  301EMI    N02 5718   3.044   6.231   2.775
  301EMI    H0E 5719   3.130   6.347   2.624
  302EMI    C01 5720   0.544   3.823   0.536
  302EMI    C04 5721   0.629   3.923   0.720
  302EMI    C03 5722   0.730   3.907   0.633
  302EMI    H07 5723   0.476   3.778   0.467
  302EMI    H09 5724   0.635   3.967   0.817
  302EMI    H08 5725   0.832   3.936   0.646
  302EMI    C05 5726   0.744   3.805   0.393
  302EMI    H0B 5727   0.678   3.809   0.309
  302EMI    H0C 5728   0.826   3.873   0.378
  302EMI    H0D 5729   0.782   3.705   0.403
  302EMI    N00 5730   0.671   3.842   0.515
  302EMI    C06 5731   0.375   3.864   0.713
  302EMI    H0F 5732   0.363   3.772   0.767
  302EMI    C0N 5733   0.357   3.983   0.809
  302EMI    H0O 5734   0.259   3.979   0.851
  302EMI    H0P 5735   0.430   3.977   0.887
  302EMI    H0Q 5736   0.370   4.074   0.755
  302EMI    N02 5737   0.510   3.868   0.655
  302EMI    H0E 5738   0.303   3.869   0.635
  303EMI    C01 5739   1.007   0.626   6.166
  303EMI    C04 5740   1.135   0.812   6.175
  303EMI    C03 5741   1.217   0.708   6.187
  303EMI    H07 5742   0.924   0.560   6.159
  303EMI    H09 5743   1.162   0.916   6.175
  303EMI    H08 5744   1.323   0.710   6.199
  303EMI    C05 5745   1.178   0.450   6.190
  303EMI    H0B 5746   1.113   0.386   6.134
  303EMI    H0C 5747   1.277   0.443   6.151
  303EMI    H0D 5748   1.178   0.419   6.293
  303EMI    N00 5749   1.131   0.589   6.181
  303EMI    C06 5750   0.876   0.835   6.145
  303EMI    H0F 5751   0.835   0.857   6.242
  303EMI    C0N 5752   0.908   0.966   6.072
  303EMI    H0O 5753   0.818   1.023   6.060
  303EMI    H0P 5754   0.978   1.023   6.129
  303EMI    H0Q 5755   0.949   0.945   5.975
  303EMI    N02 5756   1.000   0.757   6.161
  303EMI    H0E 5757   0.805   0.778   6.088
  304EMI    C01 5758   4.643   1.815   1.428
  304EMI    C04 5759   4.799   1.663   1.368
  304EMI    C03 5760   4.853   1.740   1.463
  304EMI    H07 5761   4.553   1.871   1.435
  304EMI    H09 5762   4.845   1.581   1.317
  304EMI    H08 5763   4.952   1.732   1.503
  304EMI    C05 5764   4.765   1.943   1.601
  304EMI    H0B 5765   4.670   1.964   1.645
  304EMI    H0C 5766   4.833   1.911   1.677
  304EMI    H0D 5767   4.803   2.032   1.555
  304EMI    N00 5768   4.750   1.837   1.500
  304EMI    C06 5769   4.565   1.660   1.252
  304EMI    H0F 5770   4.575   1.710   1.158
  304EMI    C0N 5771   4.589   1.509   1.233
  304EMI    H0O 5772   4.517   1.470   1.164
  304EMI    H0P 5773   4.688   1.494   1.195
  304EMI    H0Q 5774   4.578   1.459   1.327
  304EMI    N02 5775   4.663   1.714   1.348
  304EMI    H0E 5776   4.466   1.676   1.290
  305EMI    C01 5777   0.212   1.764   1.084
  305EMI    C04 5778   0.416   1.764   1.182
  305EMI    C03 5779   0.392   1.639   1.140
  305EMI    H07 5780   0.117   1.795   1.046
  305EMI    H09 5781   0.503   1.799   1.233
  305EMI    H08 5782   0.456   1.554   1.150
  305EMI    C05 5783   0.192   1.528   1.015
  305EMI    H0B 5784   0.128   1.562   0.936
  305EMI    H0C 5785   0.264   1.460   0.976
  305EMI    H0D 5786   0.132   1.478   1.089
  305EMI    N00 5787   0.260   1.642   1.077
  305EMI    C06 5788   0.278   1.986   1.171
  305EMI    H0F 5789   0.231   1.998   1.266
  305EMI    C0N 5790   0.415   2.057   1.172
  305EMI    H0O 5791   0.401   2.161   1.192
  305EMI    H0P 5792   0.477   2.014   1.249
  305EMI    H0Q 5793   0.463   2.044   1.077
  305EMI    N02 5794   0.298   1.842   1.145
  305EMI    H0E 5795   0.217   2.028   1.095
  306EMI    C01 5796   2.482   5.873   1.697
  306EMI    C04 5797   2.500   6.074   1.595
  306EMI    C03 5798   2.611   6.005   1.568
  306EMI    H07 5799   2.446   5.790   1.754
  306EMI    H09 5800   2.475   6.173   1.563
  306EMI    H08 5801   2.694   6.038   1.508
  306EMI    C05 5802   2.696   5.767   1.632
  306EMI    H0B 5803   2.645   5.673   1.640
  306EMI    H0C 5804   2.750   5.770   1.540
  306EMI    H0D 5805   2.764   5.778   1.714
  306EMI    N00 5806   2.597   5.876   1.634
  306EMI    C06 5807   2.286   6.019   1.735
  306EMI    H0F 5808   2.298   6.065   1.831
  306EMI    C0N 5809   2.213   6.116   1.640
  306EMI    H0O 5810   2.117   6.140   1.680
  306EMI    H0P 5811   2.271   6.206   1.630
  306EMI    H0Q 5812   2.202   6.070   1.544
  306EMI    N02 5813   2.418   5.986   1.680
  306EMI    H0E 5814   2.228   5.929   1.745
  307EMI    C01 5815   4.958   3.151   2.548
  307EMI    C04 5816   5.075   3.223   2.726
  307EMI    C03 5817   5.162   3.165   2.643
  307EMI    H07 5818   4.878   3.130   2.480
  307EMI    H09 5819   5.098   3.269   2.821
  307EMI    H08 5820   5.267   3.154   2.657
  307EMI    C05 5821   5.136   3.048   2.411
  307EMI    H0B 5822   5.076   3.072   2.325
  307EMI    H0C 5823   5.237   3.079   2.393
  307EMI    H0D 5824   5.133   2.943   2.428
  307EMI    N00 5825   5.083   3.119   2.528
  307EMI    C06 5826   4.818   3.264   2.717
  307EMI    H0F 5827   4.772   3.188   2.777
  307EMI    C0N 5828   4.846   3.388   2.805
  307EMI    H0O 5829   4.754   3.424   2.845
  307EMI    H0P 5830   4.911   3.360   2.885
  307EMI    H0Q 5831   4.892   3.464   2.745
  307EMI    N02 5832   4.944   3.213   2.662
  307EMI    H0E 5833   4.752   3.291   2.637
  308EMI    C01 5834   2.030   0.525   4.613
  308EMI    C04 5835   1.833   0.618   4.554
  308EMI    C03 5836   1.929   0.707   4.526
  308EMI    H07 5837   2.104   0.457   4.649
  308EMI    H09 5838   1.728   0.630   4.540
  308EMI    H08 5839   1.916   0.805   4.484
  308EMI    C05 5840   2.188   0.705   4.552
  308EMI    H0B 5841   2.261   0.628   4.536
  308EMI    H0C 5842   2.189   0.772   4.469
  308EMI    H0D 5843   2.212   0.759   4.641
  308EMI    N00 5844   2.055   0.644   4.565
  308EMI    C06 5845   1.837   0.378   4.656
  308EMI    H0F 5846   1.812   0.387   4.760
  308EMI    C0N 5847   1.708   0.354   4.575
  308EMI    H0O 5848   1.661   0.264   4.608
  308EMI    H0P 5849   1.641   0.437   4.589
  308EMI    H0Q 5850   1.733   0.345   4.471
  308EMI    N02 5851   1.902   0.501   4.610
  308EMI    H0E 5852   1.903   0.295   4.643
  309EMI    C01 5853   3.157   5.341   7.388
  309EMI    C04 5854   3.121   5.475   7.210
  309EMI    C03 5855   3.221   5.529   7.281
  309EMI    H07 5856   3.150   5.261   7.459
  309EMI    H09 5857   3.079   5.513   7.119
  309EMI    H08 5858   3.274   5.619   7.258
  309EMI    C05 5859   3.342   5.460   7.501
  309EMI    H0B 5860   3.373   5.364   7.539
  309EMI    H0C 5861   3.427   5.511   7.461
  309EMI    H0D 5862   3.299   5.517   7.581
  309EMI    N00 5863   3.242   5.440   7.395
  309EMI    C06 5864   2.975   5.260   7.241
  309EMI    H0F 5865   2.883   5.291   7.284
  309EMI    C0N 5866   2.963   5.261   7.087
  309EMI    H0O 5867   2.885   5.194   7.058
  309EMI    H0P 5868   2.939   5.360   7.054
  309EMI    H0Q 5869   3.055   5.231   7.044
  309EMI    N02 5870   3.082   5.353   7.282
  309EMI    H0E 5871   3.000   5.162   7.274
  310EMI    C01 5872   7.253   2.060   6.196
  310EMI    C04 5873   7.198   2.276   6.228
  310EMI    C03 5874   7.088   2.203   6.252
  310EMI    H07 5875   7.308   1.971   6.174
  310EMI    H09 5876   7.207   2.383   6.234
  310EMI    H08 5877   6.992   2.240   6.280
  310EMI    C05 5878   7.039   1.947   6.244
  310EMI    H0B 5879   7.096   1.862   6.274
  310EMI    H0C 5880   6.964   1.968   6.318
  310EMI    H0D 5881   6.991   1.927   6.150
  310EMI    N00 5882   7.127   2.064   6.230
  310EMI    C06 5883   7.442   2.215   6.158
  310EMI    H0F 5884   7.449   2.232   6.052
  310EMI    C0N 5885   7.483   2.343   6.232
  310EMI    H0O 5886   7.584   2.368   6.207
  310EMI    H0P 5887   7.418   2.424   6.204
  310EMI    H0Q 5888   7.475   2.327   6.338
  310EMI    N02 5889   7.303   2.181   6.192
  310EMI    H0E 5890   7.506   2.135   6.186
  311EMI    C01 5891   5.354   5.288   7.620
  311EMI    C04 5892   5.328   5.169   7.811
  311EMI    C03 5893   5.387   5.089   7.722
  311EMI    H07 5894   5.353   5.367   7.548
  311EMI    H09 5895   5.300   5.145   7.911
  311EMI    H08 5896   5.417   4.987   7.736
  311EMI    C05 5897   5.465   5.122   7.474
  311EMI    H0B 5898   5.510   5.205   7.424
  311EMI    H0C 5899   5.539   5.048   7.496
  311EMI    H0D 5900   5.389   5.079   7.412
  311EMI    N00 5901   5.403   5.169   7.600
  311EMI    C06 5902   5.245   5.417   7.801
  311EMI    H0F 5903   5.140   5.415   7.783
  311EMI    C0N 5904   5.271   5.419   7.953
  311EMI    H0O 5905   5.226   5.506   7.996
  311EMI    H0P 5906   5.229   5.331   7.997
  311EMI    H0Q 5907   5.377   5.421   7.971
  311EMI    N02 5908   5.308   5.298   7.742
  311EMI    H0E 5909   5.287   5.505   7.757
  312EMI    C01 5910   2.430   7.803   5.453
  312EMI    C04 5911   2.437   7.588   5.520
  312EMI    C03 5912   2.512   7.658   5.606
  312EMI    H07 5913   2.409   7.893   5.399
  312EMI    H09 5914   2.418   7.482   5.522
  312EMI    H08 5915   2.566   7.620   5.690
  312EMI    C05 5916   2.574   7.911   5.623
  312EMI    H0B 5917   2.516   8.000   5.607
  312EMI    H0C 5918   2.583   7.893   5.728
  312EMI    H0D 5919   2.671   7.923   5.580
  312EMI    N00 5920   2.506   7.797   5.560
  312EMI    C06 5921   2.297   7.653   5.309
  312EMI    H0F 5922   2.357   7.630   5.223
  312EMI    C0N 5923   2.209   7.532   5.345
  312EMI    H0O 5924   2.145   7.509   5.262
  312EMI    H0P 5925   2.271   7.447   5.366
  312EMI    H0Q 5926   2.150   7.555   5.431
  312EMI    N02 5927   2.385   7.684   5.423
  312EMI    H0E 5928   2.235   7.737   5.288
  313EMI    C01 5929   5.388   0.398   4.878
  313EMI    C04 5930   5.513   0.221   4.815
  313EMI    C03 5931   5.385   0.193   4.784
  313EMI    H07 5932   5.358   0.493   4.917
  313EMI    H09 5933   5.598   0.158   4.798
  313EMI    H08 5934   5.348   0.103   4.739
  313EMI    C05 5935   5.162   0.324   4.813
  313EMI    H0B 5936   5.137   0.428   4.801
  313EMI    H0C 5937   5.128   0.269   4.728
  313EMI    H0D 5938   5.114   0.287   4.901
  313EMI    N00 5939   5.307   0.309   4.827
  313EMI    C06 5940   5.630   0.427   4.924
  313EMI    H0F 5941   5.646   0.403   5.027
  313EMI    C0N 5942   5.753   0.386   4.842
  313EMI    H0O 5943   5.839   0.439   4.878
  313EMI    H0P 5944   5.769   0.280   4.852
  313EMI    H0Q 5945   5.737   0.409   4.739
  313EMI    N02 5946   5.511   0.354   4.875
  313EMI    H0E 5947   5.613   0.532   4.914
  314EMI    C01 5948   4.626   4.790   4.949
  314EMI    C04 5949   4.502   4.606   4.907
  314EMI    C03 5950   4.421   4.712   4.894
  314EMI    H07 5951   4.707   4.856   4.973
  314EMI    H09 5952   4.476   4.503   4.894
  314EMI    H08 5953   4.317   4.711   4.869
  314EMI    C05 5954   4.458   4.970   4.919
  314EMI    H0B 5955   4.539   5.033   4.891
  314EMI    H0C 5956   4.378   4.980   4.848
  314EMI    H0D 5957   4.423   4.997   5.016
  314EMI    N00 5958   4.504   4.830   4.922
  314EMI    C06 5959   4.755   4.580   4.967
  314EMI    H0F 5960   4.760   4.555   5.071
  314EMI    C0N 5961   4.749   4.452   4.883
  314EMI    H0O 5962   4.837   4.394   4.901
  314EMI    H0P 5963   4.663   4.395   4.910
  314EMI    H0Q 5964   4.744   4.477   4.779
  314EMI    N02 5965   4.633   4.660   4.943
  314EMI    H0E 5966   4.841   4.637   4.940
  315EMI    C01 5967   6.554   5.041   2.908
  315EMI    C04 5968   6.528   4.936   3.106
  315EMI    C03 5969   6.578   5.057   3.132
  315EMI    H07 5970   6.555   5.063   2.803
  315EMI    H09 5971   6.503   4.860   3.177
  315EMI    H08 5972   6.601   5.098   3.228
  315EMI    C05 5973   6.646   5.258   2.981
  315EMI    H0B 5974   6.602   5.300   2.893
  315EMI    H0C 5975   6.622   5.319   3.065
  315EMI    H0D 5976   6.752   5.254   2.968
  315EMI    N00 5977   6.594   5.123   3.002
  315EMI    C06 5978   6.463   4.812   2.885
  315EMI    H0F 5979   6.544   4.747   2.860
  315EMI    C0N 5980   6.361   4.736   2.972
  315EMI    H0O 5981   6.323   4.652   2.917
  315EMI    H0P 5982   6.408   4.702   3.061
  315EMI    H0Q 5983   6.279   4.801   2.997
  315EMI    N02 5984   6.514   4.928   2.960
  315EMI    H0E 5985   6.415   4.846   2.796
  316EMI    C01 5986   1.755   0.220   2.289
  316EMI    C04 5987   1.949   0.130   2.362
  316EMI    C03 5988   1.940   0.103   2.232
  316EMI    H07 5989   1.661   0.271   2.285
  316EMI    H09 5990   2.028   0.102   2.428
  316EMI    H08 5991   2.010   0.049   2.172
  316EMI    C05 5992   1.761   0.158   2.050
  316EMI    H0B 5993   1.702   0.246   2.031
  316EMI    H0C 5994   1.842   0.155   1.980
  316EMI    H0D 5995   1.700   0.071   2.038
  316EMI    N00 5996   1.813   0.163   2.187
  316EMI    C06 5997   1.794   0.257   2.530
  316EMI    H0F 5998   1.738   0.183   2.584
  316EMI    C0N 5999   1.924   0.289   2.607
  316EMI    H0O 6000   1.899   0.326   2.704
  316EMI    H0P 6001   1.982   0.200   2.617
  316EMI    H0Q 6002   1.980   0.363   2.554
  316EMI    N02 6003   1.828   0.206   2.397
  316EMI    H0E 6004   1.736   0.346   2.520
  317EMI    C01 6005   3.845   2.819   3.507
  317EMI    C04 6006   3.802   3.039   3.481
  317EMI    C03 6007   3.927   3.018   3.438
  317EMI    H07 6008   3.835   2.715   3.531
  317EMI    H09 6009   3.750   3.132   3.483
  317EMI    H08 6010   3.995   3.090   3.398
  317EMI    C05 6011   4.077   2.804   3.422
  317EMI    H0B 6012   4.055   2.703   3.395
  317EMI    H0C 6013   4.124   2.854   3.340
  317EMI    H0D 6014   4.142   2.805   3.507
  317EMI    N00 6015   3.952   2.874   3.456
  317EMI    C06 6016   3.618   2.883   3.580
  317EMI    H0F 6017   3.621   2.895   3.687
  317EMI    C0N 6018   3.518   2.983   3.520
  317EMI    H0O 6019   3.420   2.965   3.561
  317EMI    H0P 6020   3.548   3.083   3.545
  317EMI    H0Q 6021   3.515   2.972   3.414
  317EMI    N02 6022   3.752   2.909   3.525
  317EMI    H0E 6023   3.588   2.784   3.556
  318EMI    C01 6024   3.599   2.904   1.406
  318EMI    C04 6025   3.757   2.815   1.539
  318EMI    C03 6026   3.815   2.843   1.423
  318EMI    H07 6027   3.506   2.941   1.368
  318EMI    H09 6028   3.803   2.771   1.626
  318EMI    H08 6029   3.918   2.827   1.396
  318EMI    C05 6030   3.728   2.947   1.200
  318EMI    H0B 6031   3.659   3.027   1.180
  318EMI    H0C 6032   3.828   2.982   1.186
  318EMI    H0D 6033   3.709   2.867   1.132
  318EMI    N00 6034   3.710   2.901   1.338
  318EMI    C06 6035   3.513   2.842   1.629
  318EMI    H0F 6036   3.465   2.747   1.621
  318EMI    C0N 6037   3.579   2.854   1.768
  318EMI    H0O 6038   3.503   2.845   1.844
  318EMI    H0P 6039   3.651   2.776   1.781
  318EMI    H0Q 6040   3.627   2.950   1.777
  318EMI    N02 6041   3.617   2.855   1.526
  318EMI    H0E 6042   3.441   2.920   1.617
  319EMI    C01 6043   0.746   5.726   6.728
  319EMI    C04 6044   0.603   5.554   6.698
  319EMI    C03 6045   0.529   5.662   6.727
  319EMI    H07 6046   0.835   5.784   6.736
  319EMI    H09 6047   0.567   5.455   6.677
  319EMI    H08 6048   0.423   5.667   6.734
  319EMI    C05 6049   0.590   5.910   6.780
  319EMI    H0B 6050   0.663   5.976   6.739
  319EMI    H0C 6051   0.494   5.934   6.739
  319EMI    H0D 6052   0.587   5.921   6.886
  319EMI    N00 6053   0.625   5.771   6.746
  319EMI    C06 6054   0.859   5.513   6.673
  319EMI    H0F 6055   0.894   5.470   6.764
  319EMI    C0N 6056   0.820   5.401   6.575
  319EMI    H0O 6057   0.905   5.339   6.555
  319EMI    H0P 6058   0.742   5.342   6.618
  319EMI    H0Q 6059   0.786   5.444   6.483
  319EMI    N02 6060   0.742   5.598   6.699
  319EMI    H0E 6061   0.937   5.572   6.630
  320EMI    C01 6062   7.154   1.906   2.809
  320EMI    C04 6063   7.040   1.919   2.615
  320EMI    C03 6064   7.162   1.967   2.592
  320EMI    H07 6065   7.181   1.888   2.911
  320EMI    H09 6066   6.960   1.911   2.545
  320EMI    H08 6067   7.201   2.005   2.499
  320EMI    C05 6068   7.373   1.998   2.742
  320EMI    H0B 6069   7.416   1.937   2.819
  320EMI    H0C 6070   7.430   1.987   2.652
  320EMI    H0D 6071   7.376   2.101   2.773
  320EMI    N00 6072   7.234   1.957   2.719
  320EMI    C06 6073   6.922   1.823   2.827
  320EMI    H0F 6074   6.863   1.901   2.869
  320EMI    C0N 6075   6.837   1.741   2.728
  320EMI    H0O 6076   6.753   1.699   2.780
  320EMI    H0P 6077   6.802   1.805   2.650
  320EMI    H0Q 6078   6.896   1.663   2.686
  320EMI    N02 6079   7.037   1.881   2.756
  320EMI    H0E 6080   6.957   1.759   2.905
  321EMI    C01 6081   3.634   2.175   7.028
  321EMI    C04 6082   3.810   2.097   7.145
  321EMI    C03 6083   3.807   2.230   7.161
  321EMI    H07 6084   3.547   2.181   6.965
  321EMI    H09 6085   3.880   2.028   7.188
  321EMI    H08 6086   3.876   2.289   7.218
  321EMI    C05 6087   3.650   2.418   7.071
  321EMI    H0B 6088   3.544   2.422   7.057
  321EMI    H0C 6089   3.677   2.471   7.160
  321EMI    H0D 6090   3.699   2.462   6.987
  321EMI    N00 6091   3.692   2.278   7.083
  321EMI    C06 6092   3.659   1.930   7.014
  321EMI    H0F 6093   3.709   1.907   6.922
  321EMI    C0N 6094   3.700   1.827   7.121
  321EMI    H0O 6095   3.673   1.728   7.088
  321EMI    H0P 6096   3.806   1.831   7.136
  321EMI    H0Q 6097   3.650   1.849   7.213
  321EMI    N02 6098   3.696   2.064   7.058
  321EMI    H0E 6099   3.553   1.925   6.999
  322EMI    C01 6100   6.834   5.590   5.326
  322EMI    C04 6101   7.041   5.642   5.400
  322EMI    C03 6102   6.982   5.756   5.363
  322EMI    H07 6103   6.746   5.535   5.298
  322EMI    H09 6104   7.139   5.630   5.440
  322EMI    H08 6105   7.024   5.854   5.367
  322EMI    C05 6106   6.747   5.812   5.264
  322EMI    H0B 6107   6.649   5.774   5.286
  322EMI    H0C 6108   6.759   5.908   5.312
  322EMI    H0D 6109   6.758   5.823   5.159
  322EMI    N00 6110   6.848   5.719   5.316
  322EMI    C06 6111   6.963   5.392   5.401
  322EMI    H0F 6112   7.005   5.346   5.314
  322EMI    C0N 6113   7.060   5.375   5.519
  322EMI    H0O 6114   7.075   5.271   5.538
  322EMI    H0P 6115   7.154   5.421   5.495
  322EMI    H0Q 6116   7.019   5.421   5.606
  322EMI    N02 6117   6.943   5.536   5.375
  322EMI    H0E 6118   6.869   5.347   5.424
  323EMI    C01 6119   1.473   5.436   5.947
  323EMI    C04 6120   1.270   5.459   5.851
  323EMI    C03 6121   1.302   5.330   5.845
  323EMI    H07 6122   1.565   5.457   5.996
  323EMI    H09 6123   1.180   5.505   5.814
  323EMI    H08 6124   1.243   5.251   5.803
  323EMI    C05 6125   1.509   5.193   5.925
  323EMI    H0B 6126   1.570   5.200   6.013
  323EMI    H0C 6127   1.441   5.111   5.935
  323EMI    H0D 6128   1.572   5.177   5.840
  323EMI    N00 6129   1.433   5.318   5.908
  323EMI    C06 6130   1.392   5.670   5.945
  323EMI    H0F 6131   1.438   5.720   5.863
  323EMI    C0N 6132   1.250   5.728   5.967
  323EMI    H0O 6133   1.257   5.832   5.987
  323EMI    H0P 6134   1.192   5.712   5.878
  323EMI    H0Q 6135   1.204   5.678   6.049
  323EMI    N02 6136   1.382   5.526   5.917
  323EMI    H0E 6137   1.450   5.685   6.034
  324EMI    C01 6138   4.139   3.275   0.537
  324EMI    C04 6139   4.048   3.078   0.598
  324EMI    C03 6140   4.179   3.057   0.579
  324EMI    H07 6141   4.152   3.378   0.512
  324EMI    H09 6142   3.975   3.005   0.627
  324EMI    H08 6143   4.231   2.964   0.590
  324EMI    C05 6144   4.377   3.212   0.508
  324EMI    H0B 6145   4.401   3.313   0.533
  324EMI    H0C 6146   4.438   3.145   0.564
  324EMI    H0D 6147   4.393   3.196   0.403
  324EMI    N00 6148   4.235   3.186   0.539
  324EMI    C06 6149   3.896   3.289   0.578
  324EMI    H0F 6150   3.847   3.284   0.483
  324EMI    C0N 6151   3.808   3.221   0.685
  324EMI    H0O 6152   3.714   3.272   0.691
  324EMI    H0P 6153   3.792   3.119   0.658
  324EMI    H0Q 6154   3.857   3.226   0.780
  324EMI    N02 6155   4.026   3.220   0.570
  324EMI    H0E 6156   3.912   3.391   0.605
  325EMI    C01 6157   0.719   1.454   1.199
  325EMI    C04 6158   0.596   1.320   1.066
  325EMI    C03 6159   0.523   1.345   1.175
  325EMI    H07 6160   0.798   1.515   1.238
  325EMI    H09 6161   0.568   1.259   0.983
  325EMI    H08 6162   0.424   1.310   1.197
  325EMI    C05 6163   0.566   1.488   1.390
  325EMI    H0B 6164   0.613   1.582   1.405
  325EMI    H0C 6165   0.459   1.500   1.393
  325EMI    H0D 6166   0.596   1.420   1.468
  325EMI    N00 6167   0.605   1.433   1.259
  325EMI    C06 6168   0.834   1.393   0.989
  325EMI    H0F 6169   0.901   1.312   1.012
  325EMI    C0N 6170   0.780   1.376   0.846
  325EMI    H0O 6171   0.862   1.377   0.777
  325EMI    H0P 6172   0.728   1.283   0.838
  325EMI    H0Q 6173   0.714   1.456   0.824
  325EMI    N02 6174   0.722   1.391   1.085
  325EMI    H0E 6175   0.887   1.485   0.997
  326EMI    C01 6176   4.562   0.407   4.888
  326EMI    C04 6177   4.784   0.439   4.865
  326EMI    C03 6178   4.724   0.556   4.838
  326EMI    H07 6179   4.466   0.362   4.905
  326EMI    H09 6180   4.889   0.419   4.864
  326EMI    H08 6181   4.772   0.648   4.811
  326EMI    C05 6182   4.475   0.632   4.834
  326EMI    H0B 6183   4.391   0.609   4.897
  326EMI    H0C 6184   4.512   0.729   4.858
  326EMI    H0D 6185   4.443   0.631   4.732
  326EMI    N00 6186   4.580   0.532   4.854
  326EMI    C06 6187   4.694   0.204   4.933
  326EMI    H0F 6188   4.693   0.144   4.844
  326EMI    C0N 6189   4.830   0.186   5.004
  326EMI    H0O 6190   4.843   0.083   5.030
  326EMI    H0P 6191   4.909   0.216   4.939
  326EMI    H0Q 6192   4.831   0.245   5.093
  326EMI    N02 6193   4.676   0.345   4.897
  326EMI    H0E 6194   4.615   0.173   4.998
  327EMI    C01 6195   7.405   7.574   2.844
  327EMI    C04 6196   7.279   7.746   2.918
  327EMI    C03 6197   7.221   7.633   2.960
  327EMI    H07 6198   7.482   7.517   2.796
  327EMI    H09 6199   7.246   7.846   2.936
  327EMI    H08 6200   7.132   7.624   3.018
  327EMI    C05 6201   7.280   7.380   2.933
  327EMI    H0B 6202   7.374   7.328   2.934
  327EMI    H0C 6203   7.230   7.366   3.026
  327EMI    H0D 6204   7.220   7.342   2.853
  327EMI    N00 6205   7.305   7.523   2.911
  327EMI    C06 6206   7.494   7.795   2.778
  327EMI    H0F 6207   7.462   7.814   2.677
  327EMI    C0N 6208   7.499   7.928   2.855
  327EMI    H0O 6209   7.569   7.994   2.807
  327EMI    H0P 6210   7.402   7.973   2.856
  327EMI    H0Q 6211   7.531   7.910   2.955
  327EMI    N02 6212   7.398   7.704   2.843
  327EMI    H0E 6213   7.591   7.750   2.777
  328EMI    C01 6214   5.974   7.281   6.587
  328EMI    C04 6215   6.171   7.391   6.598
  328EMI    C03 6216   6.198   7.260   6.607
  328EMI    H07 6217   5.870   7.259   6.579
  328EMI    H09 6218   6.242   7.471   6.599
  328EMI    H08 6219   6.295   7.215   6.618
  328EMI    C05 6220   6.049   7.046   6.606
  328EMI    H0B 6221   5.962   7.020   6.550
  328EMI    H0C 6222   6.134   6.996   6.566
  328EMI    H0D 6223   6.035   7.016   6.708
  328EMI    N00 6224   6.069   7.192   6.600
  328EMI    C06 6225   5.950   7.527   6.571
  328EMI    H0F 6226   5.923   7.562   6.668
  328EMI    C0N 6227   6.037   7.632   6.500
  328EMI    H0O 6228   5.982   7.723   6.490
  328EMI    H0P 6229   6.126   7.650   6.557
  328EMI    H0Q 6230   6.064   7.596   6.403
  328EMI    N02 6231   6.026   7.401   6.585
  328EMI    H0E 6232   5.862   7.509   6.513
  329EMI    C01 6233   5.257   6.709   5.629
  329EMI    C04 6234   5.372   6.650   5.814
  329EMI    C03 6235   5.439   6.751   5.756
  329EMI    H07 6236   5.183   6.714   5.552
  329EMI    H09 6237   5.399   6.598   5.903
  329EMI    H08 6238   5.530   6.796   5.790
  329EMI    C05 6239   5.397   6.893   5.541
  329EMI    H0B 6240   5.307   6.933   5.498
  329EMI    H0C 6241   5.450   6.971   5.592
  329EMI    H0D 6242   5.458   6.853   5.464
  329EMI    N00 6243   5.362   6.787   5.637
  329EMI    C06 6244   5.152   6.523   5.754
  329EMI    H0F 6245   5.181   6.432   5.705
  329EMI    C0N 6246   5.139   6.499   5.905
  329EMI    H0O 6247   5.064   6.424   5.923
  329EMI    H0P 6248   5.233   6.465   5.944
  329EMI    H0Q 6249   5.111   6.590   5.954
  329EMI    N02 6250   5.255   6.626   5.729
  329EMI    H0E 6251   5.059   6.557   5.715
  330EMI    C01 6252   4.926   4.814   0.354
  330EMI    C04 6253   4.863   4.600   0.319
  330EMI    C03 6254   4.895   4.652   0.200
  330EMI    H07 6255   4.949   4.907   0.400
  330EMI    H09 6256   4.830   4.500   0.339
  330EMI    H08 6257   4.891   4.602   0.105
  330EMI    C05 6258   4.978   4.887   0.123
  330EMI    H0B 6259   5.047   4.956   0.167
  330EMI    H0C 6260   5.025   4.835   0.043
  330EMI    H0D 6261   4.893   4.941   0.087
  330EMI    N00 6262   4.935   4.790   0.225
  330EMI    C06 6263   4.863   4.696   0.561
  330EMI    H0F 6264   4.762   4.723   0.585
  330EMI    C0N 6265   4.888   4.551   0.606
  330EMI    H0O 6266   4.873   4.543   0.712
  330EMI    H0P 6267   4.821   4.485   0.555
  330EMI    H0Q 6268   4.989   4.524   0.583
  330EMI    N02 6269   4.884   4.707   0.416
  330EMI    H0E 6270   4.930   4.761   0.613
  331EMI    C01 6271   6.619   5.810   2.957
  331EMI    C04 6272   6.558   5.592   2.954
  331EMI    C03 6273   6.678   5.599   3.012
  331EMI    H07 6274   6.619   5.916   2.944
  331EMI    H09 6275   6.499   5.504   2.937
  331EMI    H08 6276   6.736   5.517   3.049
  331EMI    C05 6277   6.840   5.796   3.065
  331EMI    H0B 6278   6.823   5.896   3.101
  331EMI    H0C 6279   6.875   5.735   3.146
  331EMI    H0D 6280   6.914   5.799   2.988
  331EMI    N00 6281   6.715   5.741   3.012
  331EMI    C06 6282   6.397   5.772   2.855
  331EMI    H0F 6283   6.410   5.771   2.748
  331EMI    C0N 6284   6.283   5.675   2.893
  331EMI    H0O 6285   6.193   5.706   2.846
  331EMI    H0P 6286   6.309   5.576   2.861
  331EMI    H0Q 6287   6.270   5.676   2.999
  331EMI    N02 6288   6.522   5.730   2.920
  331EMI    H0E 6289   6.371   5.871   2.887
  332EMI    C01 6290   1.563   6.883   4.099
  332EMI    C04 6291   1.783   6.853   4.061
  332EMI    C03 6292   1.725   6.733   4.051
  332EMI    H07 6293   1.468   6.928   4.121
  332EMI    H09 6294   1.887   6.875   4.049
  332EMI    H08 6295   1.772   6.640   4.028
  332EMI    C05 6296   1.478   6.652   4.074
  332EMI    H0B 6297   1.385   6.696   4.044
  332EMI    H0C 6298   1.505   6.575   4.006
  332EMI    H0D 6299   1.467   6.611   4.173
  332EMI    N00 6300   1.582   6.756   4.075
  332EMI    C06 6301   1.693   7.092   4.114
  332EMI    H0F 6302   1.712   7.111   4.217
  332EMI    C0N 6303   1.812   7.143   4.030
  332EMI    H0O 6304   1.824   7.248   4.045
  332EMI    H0P 6305   1.901   7.092   4.060
  332EMI    H0Q 6306   1.793   7.124   3.926
  332EMI    N02 6307   1.676   6.948   4.093
  332EMI    H0E 6308   1.604   7.144   4.084
  333EMI    C01 6309   4.403   0.779   2.758
  333EMI    C04 6310   4.402   0.948   2.907
  333EMI    C03 6311   4.520   0.885   2.919
  333EMI    H07 6312   4.374   0.711   2.681
  333EMI    H09 6313   4.369   1.033   2.963
  333EMI    H08 6314   4.599   0.910   2.987
  333EMI    C05 6315   4.626   0.680   2.798
  333EMI    H0B 6316   4.624   0.648   2.696
  333EMI    H0C 6317   4.720   0.726   2.820
  333EMI    H0D 6318   4.612   0.595   2.862
  333EMI    N00 6319   4.517   0.776   2.821
  333EMI    C06 6320   4.194   0.911   2.755
  333EMI    H0F 6321   4.121   0.858   2.812
  333EMI    C0N 6322   4.170   1.062   2.770
  333EMI    H0O 6323   4.072   1.087   2.735
  333EMI    H0P 6324   4.180   1.090   2.873
  333EMI    H0Q 6325   4.243   1.116   2.712
  333EMI    N02 6326   4.329   0.877   2.802
  333EMI    H0E 6327   4.185   0.884   2.652
  334EMI    C01 6328   3.761   3.198   1.445
  334EMI    C04 6329   3.681   3.382   1.550
  334EMI    C03 6330   3.815   3.385   1.560
  334EMI    H07 6331   3.767   3.107   1.391
  334EMI    H09 6332   3.612   3.453   1.589
  334EMI    H08 6333   3.873   3.460   1.609
  334EMI    C05 6334   4.004   3.227   1.477
  334EMI    H0B 6335   4.017   3.172   1.386
  334EMI    H0C 6336   4.065   3.314   1.475
  334EMI    H0D 6337   4.033   3.165   1.560
  334EMI    N00 6338   3.863   3.265   1.492
  334EMI    C06 6339   3.514   3.214   1.440
  334EMI    H0F 6340   3.476   3.151   1.517
  334EMI    C0N 6341   3.422   3.336   1.422
  334EMI    H0O 6342   3.324   3.303   1.396
  334EMI    H0P 6343   3.418   3.391   1.514
  334EMI    H0Q 6344   3.460   3.399   1.344
  334EMI    N02 6345   3.649   3.260   1.475
  334EMI    H0E 6346   3.518   3.159   1.348
  335EMI    C01 6347   2.116   4.119   3.272
  335EMI    C04 6348   2.274   3.958   3.279
  335EMI    C03 6349   2.175   3.914   3.200
  335EMI    H07 6350   2.063   4.210   3.288
  335EMI    H09 6351   2.364   3.906   3.304
  335EMI    H08 6352   2.171   3.820   3.149
  335EMI    C05 6353   1.948   4.017   3.123
  335EMI    H0B 6354   1.921   4.116   3.094
  335EMI    H0C 6355   1.960   3.957   3.035
  335EMI    H0D 6356   1.872   3.975   3.184
  335EMI    N00 6357   2.075   4.020   3.197
  335EMI    C06 6358   2.310   4.178   3.414
  335EMI    H0F 6359   2.283   4.158   3.516
  335EMI    C0N 6360   2.461   4.151   3.395
  335EMI    H0O 6361   2.517   4.215   3.460
  335EMI    H0P 6362   2.482   4.049   3.418
  335EMI    H0Q 6363   2.488   4.171   3.293
  335EMI    N02 6364   2.233   4.091   3.324
  335EMI    H0E 6365   2.289   4.280   3.391
  336EMI    C01 6366   5.343   3.534   1.379
  336EMI    C04 6367   5.203   3.363   1.333
  336EMI    C03 6368   5.153   3.427   1.440
  336EMI    H07 6369   5.425   3.602   1.376
  336EMI    H09 6370   5.161   3.277   1.284
  336EMI    H08 6371   5.064   3.403   1.494
  336EMI    C05 6372   5.233   3.635   1.576
  336EMI    H0B 6373   5.277   3.728   1.546
  336EMI    H0C 6374   5.129   3.650   1.598
  336EMI    H0D 6375   5.283   3.598   1.663
  336EMI    N00 6376   5.246   3.537   1.467
  336EMI    C06 6377   5.414   3.399   1.184
  336EMI    H0F 6378   5.489   3.331   1.218
  336EMI    C0N 6379   5.332   3.334   1.072
  336EMI    H0O 6380   5.396   3.309   0.990
  336EMI    H0P 6381   5.284   3.246   1.109
  336EMI    H0Q 6382   5.257   3.403   1.038
  336EMI    N02 6383   5.325   3.434   1.296
  336EMI    H0E 6384   5.461   3.488   1.147
  337EMI    C01 6385   7.664   4.930   4.081
  337EMI    C04 6386   7.888   4.909   4.105
  337EMI    C03 6387   7.836   4.786   4.107
  337EMI    H07 6388   7.567   4.971   4.068
  337EMI    H09 6389   7.991   4.936   4.114
  337EMI    H08 6390   7.890   4.694   4.118
  337EMI    C05 6391   7.593   4.693   4.088
  337EMI    H0B 6392   7.510   4.722   4.027
  337EMI    H0C 6393   7.638   4.605   4.047
  337EMI    H0D 6394   7.558   4.673   4.187
  337EMI    N00 6395   7.691   4.802   4.091
  337EMI    C06 6396   7.783   5.147   4.080
  337EMI    H0F 6397   7.775   5.188   4.178
  337EMI    C0N 6398   7.918   5.187   4.018
  337EMI    H0O 6399   7.924   5.294   4.012
  337EMI    H0P 6400   7.998   5.150   4.079
  337EMI    H0Q 6401   7.926   5.145   3.920
  337EMI    N02 6402   7.775   5.000   4.088
  337EMI    H0E 6403   7.704   5.184   4.018
  338EMI    C01 6404   3.455   2.497   1.084
  338EMI    C04 6405   3.556   2.664   1.197
  338EMI    C03 6406   3.502   2.718   1.087
  338EMI    H07 6407   3.419   2.401   1.055
  338EMI    H09 6408   3.612   2.716   1.273
  338EMI    H08 6409   3.506   2.821   1.057
  338EMI    C05 6410   3.365   2.618   0.889
  338EMI    H0B 6411   3.288   2.544   0.885
  338EMI    H0C 6412   3.321   2.716   0.881
  338EMI    H0D 6413   3.432   2.603   0.807
  338EMI    N00 6414   3.438   2.607   1.016
  338EMI    C06 6415   3.564   2.422   1.293
  338EMI    H0F 6416   3.659   2.380   1.267
  338EMI    C0N 6417   3.574   2.490   1.431
  338EMI    H0O 6418   3.602   2.417   1.504
  338EMI    H0P 6419   3.647   2.567   1.427
  338EMI    H0Q 6420   3.478   2.531   1.457
  338EMI    N02 6421   3.524   2.522   1.192
  338EMI    H0E 6422   3.490   2.344   1.297
  339EMI    C01 6423   4.289   0.293   7.166
  339EMI    C04 6424   4.378   0.090   7.124
  339EMI    C03 6425   4.246   0.078   7.111
  339EMI    H07 6426   4.278   0.396   7.191
  339EMI    H09 6427   4.451   0.013   7.111
  339EMI    H08 6428   4.191  -0.010   7.085
  339EMI    C05 6429   4.048   0.247   7.136
  339EMI    H0B 6430   4.038   0.350   7.108
  339EMI    H0C 6431   3.997   0.185   7.065
  339EMI    H0D 6432   4.006   0.232   7.233
  339EMI    N00 6433   4.191   0.211   7.139
  339EMI    C06 6434   4.536   0.289   7.185
  339EMI    H0F 6435   4.560   0.280   7.289
  339EMI    C0N 6436   4.642   0.216   7.100
  339EMI    H0O 6437   4.738   0.259   7.119
  339EMI    H0P 6438   4.643   0.112   7.128
  339EMI    H0Q 6439   4.617   0.225   6.997
  339EMI    N02 6440   4.403   0.230   7.160
  339EMI    H0E 6441   4.534   0.393   7.158
  340EMI    C01 6442   3.674   5.772   0.940
  340EMI    C04 6443   3.505   5.918   0.971
  340EMI    C03 6444   3.453   5.795   0.982
  340EMI    H07 6445   3.771   5.730   0.922
  340EMI    H09 6446   3.452   6.010   0.980
  340EMI    H08 6447   3.351   5.769   1.002
  340EMI    C05 6448   3.557   5.556   0.966
  340EMI    H0B 6449   3.650   5.515   1.000
  340EMI    H0C 6450   3.479   5.526   1.032
  340EMI    H0D 6451   3.536   5.519   0.868
  340EMI    N00 6452   3.565   5.702   0.962
  340EMI    C06 6453   3.745   6.008   0.924
  340EMI    H0F 6454   3.749   6.033   0.820
  340EMI    C0N 6455   3.702   6.132   1.004
  340EMI    H0O 6456   3.772   6.211   0.990
  340EMI    H0P 6457   3.605   6.164   0.971
  340EMI    H0Q 6458   3.697   6.107   1.108
  340EMI    N02 6459   3.647   5.900   0.944
  340EMI    H0E 6460   3.841   5.976   0.957
  341EMI    C01 6461   7.052   6.281   3.815
  341EMI    C04 6462   7.166   6.211   3.997
  341EMI    C03 6463   7.037   6.217   4.032
  341EMI    H07 6464   7.028   6.314   3.717
  341EMI    H09 6465   7.248   6.182   4.060
  341EMI    H08 6466   6.994   6.194   4.127
  341EMI    C05 6467   6.821   6.285   3.902
  341EMI    H0B 6468   6.789   6.266   3.801
  341EMI    H0C 6469   6.770   6.218   3.968
  341EMI    H0D 6470   6.798   6.386   3.928
  341EMI    N00 6471   6.966   6.263   3.912
  341EMI    C06 6472   7.295   6.261   3.776
  341EMI    H0F 6473   7.338   6.359   3.785
  341EMI    C0N 6474   7.397   6.156   3.826
  341EMI    H0O 6475   7.486   6.163   3.767
  341EMI    H0P 6476   7.421   6.176   3.928
  341EMI    H0Q 6477   7.355   6.059   3.816
  341EMI    N02 6478   7.173   6.252   3.857
  341EMI    H0E 6479   7.272   6.242   3.673
  342EMI    C01 6480   4.882   6.238   6.550
  342EMI    C04 6481   4.707   6.176   6.679
  342EMI    C03 6482   4.814   6.184   6.759
  342EMI    H07 6483   4.942   6.266   6.466
  342EMI    H09 6484   4.608   6.149   6.707
  342EMI    H08 6485   4.818   6.166   6.864
  342EMI    C05 6486   5.064   6.247   6.717
  342EMI    H0B 6487   5.110   6.321   6.655
  342EMI    H0C 6488   5.064   6.280   6.818
  342EMI    H0D 6489   5.119   6.155   6.710
  342EMI    N00 6490   4.926   6.225   6.673
  342EMI    C06 6491   4.671   6.215   6.423
  342EMI    H0F 6492   4.672   6.119   6.376
  342EMI    C0N 6493   4.527   6.252   6.461
  342EMI    H0O 6494   4.466   6.255   6.373
  342EMI    H0P 6495   4.487   6.179   6.529
  342EMI    H0Q 6496   4.526   6.348   6.509
  342EMI    N02 6497   4.754   6.211   6.544
  342EMI    H0E 6498   4.710   6.289   6.356
  343EMI    C01 6499   3.329   0.351   0.661
  343EMI    C04 6500   3.408   0.414   0.863
  343EMI    C03 6501   3.358   0.523   0.804
  343EMI    H07 6502   3.302   0.292   0.575
  343EMI    H09 6503   3.454   0.408   0.959
  343EMI    H08 6504   3.355   0.622   0.844
  343EMI    C05 6505   3.243   0.565   0.573
  343EMI    H0B 6506   3.173   0.507   0.516
  343EMI    H0C 6507   3.192   0.645   0.622
  343EMI    H0D 6508   3.317   0.605   0.507
  343EMI    N00 6509   3.307   0.479   0.673
  343EMI    C06 6510   3.428   0.164   0.789
  343EMI    H0F 6511   3.527   0.149   0.754
  343EMI    C0N 6512   3.422   0.132   0.940
  343EMI    H0O 6513   3.451   0.030   0.956
  343EMI    H0P 6514   3.489   0.197   0.993
  343EMI    H0Q 6515   3.323   0.147   0.976
  343EMI    N02 6516   3.388   0.304   0.768
  343EMI    H0E 6517   3.361   0.100   0.737
  344EMI    C01 6518   6.320   1.447   4.161
  344EMI    C04 6519   6.314   1.583   4.342
  344EMI    C03 6520   6.426   1.611   4.275
  344EMI    H07 6521   6.296   1.373   4.088
  344EMI    H09 6522   6.280   1.628   4.432
  344EMI    H08 6523   6.500   1.685   4.301
  344EMI    C05 6524   6.532   1.518   4.055
  344EMI    H0B 6525   6.489   1.488   3.962
  344EMI    H0C 6526   6.576   1.615   4.045
  344EMI    H0D 6527   6.608   1.448   4.084
  344EMI    N00 6528   6.427   1.522   4.158
  344EMI    C06 6529   6.120   1.412   4.302
  344EMI    H0F 6530   6.139   1.327   4.364
  344EMI    C0N 6531   6.032   1.513   4.378
  344EMI    H0O 6532   5.939   1.466   4.404
  344EMI    H0P 6533   6.082   1.544   4.467
  344EMI    H0Q 6534   6.013   1.597   4.315
  344EMI    N02 6535   6.248   1.476   4.266
  344EMI    H0E 6536   6.070   1.380   4.213
  345EMI    C01 6537   5.375   1.301   6.394
  345EMI    C04 6538   5.216   1.454   6.442
  345EMI    C03 6539   5.176   1.338   6.496
  345EMI    H07 6540   5.463   1.254   6.357
  345EMI    H09 6541   5.163   1.547   6.445
  345EMI    H08 6542   5.087   1.320   6.551
  345EMI    C05 6543   5.282   1.099   6.502
  345EMI    H0B 6544   5.383   1.066   6.514
  345EMI    H0C 6545   5.229   1.087   6.595
  345EMI    H0D 6546   5.234   1.041   6.426
  345EMI    N00 6547   5.281   1.241   6.463
  345EMI    C06 6548   5.425   1.525   6.303
  345EMI    H0F 6549   5.397   1.526   6.200
  345EMI    C0N 6550   5.402   1.665   6.363
  345EMI    H0O 6551   5.461   1.737   6.310
  345EMI    H0P 6552   5.299   1.691   6.355
  345EMI    H0Q 6553   5.431   1.665   6.467
  345EMI    N02 6554   5.344   1.427   6.376
  345EMI    H0E 6555   5.529   1.499   6.312
  346EMI    C01 6556   3.903   5.679   4.928
  346EMI    C04 6557   3.781   5.537   5.055
  346EMI    C03 6558   3.897   5.476   5.027
  346EMI    H07 6559   3.934   5.765   4.873
  346EMI    H09 6560   3.701   5.498   5.113
  346EMI    H08 6561   3.928   5.379   5.058
  346EMI    C05 6562   4.108   5.547   4.891
  346EMI    H0B 6563   4.160   5.640   4.882
  346EMI    H0C 6564   4.162   5.482   4.956
  346EMI    H0D 6565   4.100   5.502   4.794
  346EMI    N00 6566   3.974   5.571   4.945
  346EMI    C06 6567   3.683   5.771   4.993
  346EMI    H0F 6568   3.616   5.756   4.911
  346EMI    C0N 6569   3.604   5.759   5.125
  346EMI    H0O 6570   3.527   5.834   5.127
  346EMI    H0P 6571   3.559   5.662   5.132
  346EMI    H0Q 6572   3.670   5.774   5.208
  346EMI    N02 6573   3.788   5.668   4.990
  346EMI    H0E 6574   3.727   5.868   4.987
  347EMI    C01 6575   0.714   2.307   2.174
  347EMI    C04 6576   0.582   2.327   1.992
  347EMI    C03 6577   0.514   2.255   2.082
  347EMI    H07 6578   0.796   2.316   2.241
  347EMI    H09 6579   0.548   2.355   1.894
  347EMI    H08 6580   0.416   2.213   2.071
  347EMI    C05 6581   0.570   2.173   2.324
  347EMI    H0B 6582   0.621   2.220   2.405
  347EMI    H0C 6583   0.464   2.176   2.340
  347EMI    H0D 6584   0.602   2.071   2.316
  347EMI    N00 6585   0.602   2.244   2.199
  347EMI    C06 6586   0.818   2.438   1.991
  347EMI    H0F 6587   0.884   2.372   1.938
  347EMI    C0N 6588   0.757   2.539   1.893
  347EMI    H0O 6589   0.835   2.596   1.848
  347EMI    H0P 6590   0.702   2.487   1.817
  347EMI    H0Q 6591   0.691   2.605   1.946
  347EMI    N02 6592   0.710   2.359   2.054
  347EMI    H0E 6593   0.873   2.490   2.067
  348EMI    C01 6594   6.939   1.247   7.514
  348EMI    C04 6595   6.889   1.467   7.529
  348EMI    C03 6596   6.939   1.430   7.647
  348EMI    H07 6597   6.951   1.148   7.477
  348EMI    H09 6598   6.855   1.565   7.501
  348EMI    H08 6599   6.954   1.491   7.733
  348EMI    C05 6600   7.029   1.202   7.739
  348EMI    H0B 6601   7.087   1.125   7.694
  348EMI    H0C 6602   7.091   1.262   7.803
  348EMI    H0D 6603   6.950   1.159   7.797
  348EMI    N00 6604   6.971   1.287   7.634
  348EMI    C06 6605   6.842   1.340   7.305
  348EMI    H0F 6606   6.738   1.315   7.304
  348EMI    C0N 6607   6.863   1.476   7.237
  348EMI    H0O 6608   6.829   1.471   7.136
  348EMI    H0P 6609   6.808   1.551   7.290
  348EMI    H0Q 6610   6.967   1.501   7.238
  348EMI    N02 6611   6.889   1.347   7.444
  348EMI    H0E 6612   6.898   1.265   7.253
  349EMI    C01 6613   3.999   4.342   1.641
  349EMI    C04 6614   3.952   4.302   1.858
  349EMI    C03 6615   3.969   4.183   1.799
  349EMI    H07 6616   4.018   4.391   1.547
  349EMI    H09 6617   3.928   4.320   1.961
  349EMI    H08 6618   3.962   4.087   1.844
  349EMI    C05 6619   4.026   4.112   1.554
  349EMI    H0B 6620   4.093   4.153   1.481
  349EMI    H0C 6621   4.071   4.025   1.599
  349EMI    H0D 6622   3.934   4.084   1.507
  349EMI    N00 6623   4.000   4.212   1.658
  349EMI    C06 6624   3.963   4.548   1.771
  349EMI    H0F 6625   3.862   4.580   1.754
  349EMI    C0N 6626   4.004   4.585   1.915
  349EMI    H0O 6627   3.998   4.691   1.929
  349EMI    H0P 6628   3.938   4.536   1.984
  349EMI    H0Q 6629   4.105   4.553   1.933
  349EMI    N02 6630   3.972   4.403   1.753
  349EMI    H0E 6631   4.028   4.597   1.702
  350EMI    C01 6632   0.978   0.653   1.645
  350EMI    C04 6633   0.766   0.578   1.666
  350EMI    C03 6634   0.764   0.709   1.690
  350EMI    H07 6635   1.084   0.658   1.628
  350EMI    H09 6636   0.683   0.510   1.668
  350EMI    H08 6637   0.679   0.769   1.714
  350EMI    C05 6638   0.949   0.894   1.692
  350EMI    H0B 6639   1.034   0.911   1.629
  350EMI    H0C 6640   0.870   0.961   1.665
  350EMI    H0D 6641   0.976   0.910   1.794
  350EMI    N00 6642   0.903   0.755   1.675
  350EMI    C06 6643   0.957   0.410   1.606
  350EMI    H0F 6644   0.986   0.360   1.696
  350EMI    C0N 6645   0.847   0.329   1.535
  350EMI    H0O 6646   0.884   0.231   1.512
  350EMI    H0P 6647   0.762   0.320   1.599
  350EMI    H0Q 6648   0.819   0.378   1.444
  350EMI    N02 6649   0.906   0.544   1.637
  350EMI    H0E 6650   1.042   0.418   1.541
  351EMI    C01 6651   3.635   6.287   0.258
  351EMI    C04 6652   3.613   6.509   0.294
  351EMI    C03 6653   3.739   6.476   0.324
  351EMI    H07 6654   3.614   6.186   0.232
  351EMI    H09 6655   3.568   6.606   0.300
  351EMI    H08 6656   3.816   6.542   0.359
  351EMI    C05 6657   3.871   6.251   0.320
  351EMI    H0B 6658   3.871   6.170   0.250
  351EMI    H0C 6659   3.958   6.312   0.303
  351EMI    H0D 6660   3.873   6.213   0.420
  351EMI    N00 6661   3.750   6.332   0.300
  351EMI    C06 6662   3.408   6.372   0.208
  351EMI    H0F 6663   3.346   6.351   0.293
  351EMI    C0N 6664   3.362   6.504   0.143
  351EMI    H0O 6665   3.260   6.495   0.112
  351EMI    H0P 6666   3.370   6.584   0.214
  351EMI    H0Q 6667   3.423   6.525   0.058
  351EMI    N02 6668   3.548   6.385   0.251
  351EMI    H0E 6669   3.399   6.293   0.137
  352EMI    C01 6670   2.414   3.870   2.776
  352EMI    C04 6671   2.225   3.990   2.749
  352EMI    C03 6672   2.195   3.885   2.827
  352EMI    H07 6673   2.516   3.837   2.770
  352EMI    H09 6674   2.158   4.067   2.717
  352EMI    H08 6675   2.100   3.861   2.869
  352EMI    C05 6676   2.336   3.686   2.920
  352EMI    H0B 6677   2.436   3.680   2.958
  352EMI    H0C 6678   2.266   3.685   3.001
  352EMI    H0D 6679   2.317   3.601   2.857
  352EMI    N00 6680   2.320   3.809   2.842
  352EMI    C06 6681   2.445   4.071   2.635
  352EMI    H0F 6682   2.441   4.040   2.532
  352EMI    C0N 6683   2.385   4.213   2.647
  352EMI    H0O 6684   2.441   4.280   2.586
  352EMI    H0P 6685   2.283   4.211   2.614
  352EMI    H0Q 6686   2.389   4.244   2.749
  352EMI    N02 6687   2.367   3.978   2.718
  352EMI    H0E 6688   2.546   4.072   2.668
  353EMI    C01 6689   1.824   3.792   5.678
  353EMI    C04 6690   1.754   3.709   5.876
  353EMI    C03 6691   1.885   3.733   5.887
  353EMI    H07 6692   1.826   3.827   5.577
  353EMI    H09 6693   1.689   3.670   5.951
  353EMI    H08 6694   1.946   3.716   5.973
  353EMI    C05 6695   2.064   3.827   5.723
  353EMI    H0B 6696   2.060   3.906   5.650
  353EMI    H0C 6697   2.114   3.862   5.810
  353EMI    H0D 6698   2.117   3.744   5.682
  353EMI    N00 6699   1.927   3.787   5.757
  353EMI    C06 6700   1.582   3.740   5.681
  353EMI    H0F 6701   1.569   3.644   5.635
  353EMI    C0N 6702   1.477   3.758   5.792
  353EMI    H0O 6703   1.379   3.752   5.750
  353EMI    H0P 6704   1.489   3.681   5.866
  353EMI    H0Q 6705   1.490   3.853   5.838
  353EMI    N02 6706   1.717   3.748   5.739
  353EMI    H0E 6707   1.570   3.817   5.608
  354EMI    C01 6708   0.524   6.443   3.378
  354EMI    C04 6709   0.526   6.252   3.498
  354EMI    C03 6710   0.588   6.345   3.571
  354EMI    H07 6711   0.507   6.515   3.301
  354EMI    H09 6712   0.509   6.149   3.525
  354EMI    H08 6713   0.632   6.333   3.668
  354EMI    C05 6714   0.642   6.597   3.530
  354EMI    H0B 6715   0.586   6.676   3.486
  354EMI    H0C 6716   0.639   6.606   3.637
  354EMI    H0D 6717   0.744   6.603   3.498
  354EMI    N00 6718   0.585   6.468   3.491
  354EMI    C06 6719   0.413   6.254   3.263
  354EMI    H0F 6720   0.483   6.213   3.193
  354EMI    C0N 6721   0.323   6.142   3.317
  354EMI    H0O 6722   0.271   6.096   3.237
  354EMI    H0P 6723   0.384   6.069   3.367
  354EMI    H0Q 6724   0.253   6.183   3.387
  354EMI    N02 6725   0.485   6.318   3.374
  354EMI    H0E 6726   0.352   6.327   3.213
  355EMI    C01 6727   6.954   4.674   0.292
  355EMI    C04 6728   7.166   4.609   0.329
  355EMI    C03 6729   7.163   4.742   0.342
  355EMI    H07 6730   6.849   4.674   0.271
  355EMI    H09 6731   7.252   4.545   0.341
  355EMI    H08 6732   7.246   4.806   0.365
  355EMI    C05 6733   6.973   4.919   0.320
  355EMI    H0B 6734   6.870   4.918   0.350
  355EMI    H0C 6735   7.031   4.977   0.389
  355EMI    H0D 6736   6.981   4.962   0.222
  355EMI    N00 6737   7.024   4.782   0.317
  355EMI    C06 6738   6.984   4.430   0.274
  355EMI    H0F 6739   6.994   4.406   0.171
  355EMI    C0N 6740   7.071   4.333   0.357
  355EMI    H0O 6741   7.038   4.233   0.341
  355EMI    H0P 6742   7.173   4.343   0.327
  355EMI    H0Q 6743   7.062   4.357   0.461
  355EMI    N02 6744   7.029   4.568   0.297
  355EMI    H0E 6745   6.882   4.420   0.304
  356EMI    C01 6746   2.517   2.992   2.127
  356EMI    C04 6747   2.676   2.959   1.970
  356EMI    C03 6748   2.739   2.984   2.085
  356EMI    H07 6749   2.423   3.003   2.176
  356EMI    H09 6750   2.721   2.938   1.875
  356EMI    H08 6751   2.844   2.988   2.101
  356EMI    C05 6752   2.655   3.037   2.327
  356EMI    H0B 6753   2.574   2.998   2.385
  356EMI    H0C 6754   2.747   2.993   2.359
  356EMI    H0D 6755   2.660   3.143   2.340
  356EMI    N00 6756   2.633   3.006   2.185
  356EMI    C06 6757   2.424   2.943   1.903
  356EMI    H0F 6758   2.397   3.036   1.858
  356EMI    C0N 6759   2.471   2.845   1.794
  356EMI    H0O 6760   2.392   2.829   1.724
  356EMI    H0P 6761   2.556   2.886   1.744
  356EMI    H0Q 6762   2.498   2.751   1.839
  356EMI    N02 6763   2.532   2.965   2.000
  356EMI    H0E 6764   2.339   2.902   1.954
  357EMI    C01 6765   6.553   6.159   4.111
  357EMI    C04 6766   6.543   6.009   4.279
  357EMI    C03 6767   6.498   5.948   4.169
  357EMI    H07 6768   6.569   6.249   4.055
  357EMI    H09 6769   6.551   5.966   4.377
  357EMI    H08 6770   6.464   5.847   4.160
  357EMI    C05 6771   6.467   6.026   3.922
  357EMI    H0B 6772   6.527   6.088   3.858
  357EMI    H0C 6773   6.482   5.923   3.896
  357EMI    H0D 6774   6.364   6.051   3.909
  357EMI    N00 6775   6.506   6.048   4.062
  357EMI    C06 6776   6.631   6.250   4.327
  357EMI    H0F 6777   6.551   6.305   4.370
  357EMI    C0N 6778   6.714   6.184   4.440
  357EMI    H0O 6779   6.753   6.260   4.504
  357EMI    H0P 6780   6.651   6.118   4.496
  357EMI    H0Q 6781   6.795   6.128   4.397
  357EMI    N02 6782   6.578   6.145   4.239
  357EMI    H0E 6783   6.694   6.315   4.271
  358EMI    C01 6784   5.124   0.150   6.223
  358EMI    C04 6785   5.176   0.357   6.298
  358EMI    C03 6786   5.044   0.341   6.314
  358EMI    H07 6787   5.131   0.052   6.181
  358EMI    H09 6788   5.234   0.443   6.323
  358EMI    H08 6789   4.975   0.412   6.355
  358EMI    C05 6790   4.880   0.145   6.262
  358EMI    H0B 6791   4.890   0.038   6.272
  358EMI    H0C 6792   4.821   0.183   6.343
  358EMI    H0D 6793   4.832   0.167   6.170
  358EMI    N00 6794   5.013   0.206   6.264
  358EMI    C06 6795   5.364   0.203   6.203
  358EMI    H0F 6796   5.382   0.234   6.102
  358EMI    C0N 6797   5.458   0.280   6.297
  358EMI    H0O 6798   5.560   0.259   6.271
  358EMI    H0P 6799   5.440   0.385   6.288
  358EMI    H0Q 6800   5.441   0.249   6.398
  358EMI    N02 6801   5.225   0.232   6.239
  358EMI    H0E 6802   5.383   0.098   6.212
  359EMI    C01 6803   0.419   5.477   2.307
  359EMI    C04 6804   0.384   5.620   2.136
  359EMI    C03 6805   0.269   5.610   2.203
  359EMI    H07 6806   0.464   5.408   2.375
  359EMI    H09 6807   0.403   5.679   2.049
  359EMI    H08 6808   0.177   5.660   2.182
  359EMI    C05 6809   0.196   5.476   2.415
  359EMI    H0B 6810   0.247   5.453   2.506
  359EMI    H0C 6811   0.126   5.555   2.431
  359EMI    H0D 6812   0.145   5.388   2.381
  359EMI    N00 6813   0.294   5.517   2.314
  359EMI    C06 6814   0.619   5.511   2.167
  359EMI    H0F 6815   0.625   5.429   2.099
  359EMI    C0N 6816   0.674   5.638   2.099
  359EMI    H0O 6817   0.776   5.622   2.071
  359EMI    H0P 6818   0.616   5.659   2.011
  359EMI    H0Q 6819   0.668   5.720   2.167
  359EMI    N02 6820   0.479   5.533   2.205
  359EMI    H0E 6821   0.677   5.489   2.254
  360EMI    C01 6822   1.277   1.488   6.788
  360EMI    C04 6823   1.298   1.626   6.610
  360EMI    C03 6824   1.377   1.520   6.588
  360EMI    H07 6825   1.247   1.446   6.881
  360EMI    H09 6826   1.284   1.711   6.546
  360EMI    H08 6827   1.438   1.503   6.502
  360EMI    C05 6828   1.428   1.304   6.723
  360EMI    H0B 6829   1.366   1.240   6.783
  360EMI    H0C 6830   1.446   1.258   6.628
  360EMI    H0D 6831   1.521   1.319   6.774
  360EMI    N00 6832   1.361   1.433   6.704
  360EMI    C06 6833   1.140   1.693   6.807
  360EMI    H0F 6834   1.194   1.762   6.869
  360EMI    C0N 6835   1.060   1.771   6.701
  360EMI    H0O 6836   0.991   1.837   6.749
  360EMI    H0P 6837   1.128   1.828   6.640
  360EMI    H0Q 6838   1.006   1.702   6.639
  360EMI    N02 6839   1.235   1.603   6.740
  360EMI    H0E 6840   1.073   1.636   6.867
  361EMI    C01 6841   3.091   6.633   1.887
  361EMI    C04 6842   3.053   6.848   1.832
  361EMI    C03 6843   3.141   6.800   1.744
  361EMI    H07 6844   3.088   6.538   1.936
  361EMI    H09 6845   3.013   6.947   1.835
  361EMI    H08 6846   3.186   6.852   1.662
  361EMI    C05 6847   3.253   6.566   1.713
  361EMI    H0B 6848   3.216   6.467   1.724
  361EMI    H0C 6849   3.259   6.591   1.609
  361EMI    H0D 6850   3.351   6.572   1.756
  361EMI    N00 6851   3.164   6.660   1.782
  361EMI    C06 6852   2.930   6.745   2.037
  361EMI    H0F 6853   2.983   6.775   2.125
  361EMI    C0N 6854   2.819   6.847   2.007
  361EMI    H0O 6855   2.751   6.852   2.090
  361EMI    H0P 6856   2.862   6.943   1.991
  361EMI    H0Q 6857   2.765   6.817   1.920
  361EMI    N02 6858   3.022   6.738   1.923
  361EMI    H0E 6859   2.886   6.648   2.054
  362EMI    C01 6860   4.525   5.957   4.414
  362EMI    C04 6861   4.358   5.808   4.383
  362EMI    C03 6862   4.306   5.931   4.365
  362EMI    H07 6863   4.621   6.000   4.434
  362EMI    H09 6864   4.306   5.715   4.376
  362EMI    H08 6865   4.205   5.955   4.341
  362EMI    C05 6866   4.408   6.171   4.377
  362EMI    H0B 6867   4.502   6.210   4.344
  362EMI    H0C 6868   4.332   6.197   4.306
  362EMI    H0D 6869   4.383   6.211   4.473
  362EMI    N00 6870   4.417   6.024   4.386
  362EMI    C06 6871   4.597   5.722   4.442
  362EMI    H0F 6872   4.598   5.701   4.547
  362EMI    C0N 6873   4.557   5.595   4.364
  362EMI    H0O 6874   4.628   5.517   4.384
  362EMI    H0P 6875   4.460   5.563   4.396
  362EMI    H0Q 6876   4.556   5.616   4.259
  362EMI    N02 6877   4.500   5.828   4.414
  362EMI    H0E 6878   4.694   5.753   4.411
  363EMI    C01 6879   4.307   7.553   2.029
  363EMI    C04 6880   4.385   7.764   2.014
  363EMI    C03 6881   4.460   7.688   1.934
  363EMI    H07 6882   4.249   7.467   2.056
  363EMI    H09 6883   4.394   7.869   2.030
  363EMI    H08 6884   4.543   7.720   1.873
  363EMI    C05 6885   4.460   7.434   1.875
  363EMI    H0B 6886   4.380   7.364   1.858
  363EMI    H0C 6887   4.502   7.463   1.781
  363EMI    H0D 6888   4.535   7.387   1.935
  363EMI    N00 6889   4.408   7.552   1.945
  363EMI    C06 6890   4.181   7.713   2.169
  363EMI    H0F 6891   4.219   7.705   2.269
  363EMI    C0N 6892   4.139   7.858   2.142
  363EMI    H0O 6893   4.063   7.887   2.211
  363EMI    H0P 6894   4.224   7.923   2.154
  363EMI    H0Q 6895   4.101   7.867   2.042
  363EMI    N02 6896   4.286   7.674   2.074
  363EMI    H0E 6897   4.097   7.648   2.157
  364EMI    C01 6898   1.520   4.369   3.585
  364EMI    C04 6899   1.432   4.379   3.793
  364EMI    C03 6900   1.372   4.278   3.729
  364EMI    H07 6901   1.579   4.389   3.498
  364EMI    H09 6902   1.414   4.411   3.893
  364EMI    H08 6903   1.296   4.213   3.768
  364EMI    C05 6904   1.396   4.179   3.489
  364EMI    H0B 6905   1.481   4.162   3.426
  364EMI    H0C 6906   1.365   4.086   3.533
  364EMI    H0D 6907   1.316   4.219   3.430
  364EMI    N00 6908   1.431   4.274   3.595
  364EMI    C06 6909   1.617   4.550   3.723
  364EMI    H0F 6910   1.568   4.641   3.697
  364EMI    C0N 6911   1.653   4.553   3.873
  364EMI    H0O 6912   1.718   4.636   3.892
  364EMI    H0P 6913   1.564   4.564   3.931
  364EMI    H0Q 6914   1.703   4.462   3.900
  364EMI    N02 6915   1.528   4.436   3.697
  364EMI    H0E 6916   1.706   4.539   3.665
  365EMI    C01 6917   1.108   6.781   6.895
  365EMI    C04 6918   1.287   6.897   6.967
  365EMI    C03 6919   1.182   6.978   6.976
  365EMI    H07 6920   1.045   6.704   6.857
  365EMI    H09 6921   1.389   6.919   6.994
  365EMI    H08 6922   1.181   7.080   7.010
  365EMI    C05 6923   0.929   6.950   6.919
  365EMI    H0B 6924   0.861   6.868   6.933
  365EMI    H0C 6925   0.912   7.023   6.995
  365EMI    H0D 6926   0.912   6.994   6.823
  365EMI    N00 6927   1.067   6.901   6.928
  365EMI    C06 6928   1.317   6.649   6.889
  365EMI    H0F 6929   1.354   6.652   6.788
  365EMI    C0N 6930   1.435   6.644   6.987
  365EMI    H0O 6931   1.494   6.557   6.968
  365EMI    H0P 6932   1.496   6.731   6.974
  365EMI    H0Q 6933   1.398   6.642   7.087
  365EMI    N02 6934   1.236   6.770   6.915
  365EMI    H0E 6935   1.256   6.562   6.902
  366EMI    C01 6936   2.366   2.221   6.396
  366EMI    C04 6937   2.476   2.354   6.251
  366EMI    C03 6938   2.345   2.370   6.228
  366EMI    H07 6939   2.344   2.151   6.474
  366EMI    H09 6940   2.557   2.402   6.199
  366EMI    H08 6941   2.300   2.433   6.154
  366EMI    C05 6942   2.131   2.267   6.335
  366EMI    H0B 6943   2.106   2.244   6.437
  366EMI    H0C 6944   2.083   2.358   6.307
  366EMI    H0D 6945   2.098   2.188   6.271
  366EMI    N00 6946   2.276   2.283   6.323
  366EMI    C06 6947   2.612   2.208   6.420
  366EMI    H0F 6948   2.645   2.121   6.367
  366EMI    C0N 6949   2.719   2.318   6.409
  366EMI    H0O 6950   2.811   2.283   6.453
  366EMI    H0P 6951   2.736   2.342   6.306
  366EMI    H0Q 6952   2.686   2.405   6.462
  366EMI    N02 6953   2.486   2.257   6.360
  366EMI    H0E 6954   2.595   2.184   6.522
  367EMI    C01 6955   7.227   7.620   1.591
  367EMI    C04 6956   7.403   7.497   1.523
  367EMI    C03 6957   7.449   7.620   1.551
  367EMI    H07 6958   7.128   7.651   1.618
  367EMI    H09 6959   7.460   7.414   1.488
  367EMI    H08 6960   7.550   7.654   1.543
  367EMI    C05 6961   7.334   7.838   1.636
  367EMI    H0B 6962   7.257   7.855   1.708
  367EMI    H0C 6963   7.429   7.862   1.679
  367EMI    H0D 6964   7.317   7.901   1.551
  367EMI    N00 6965   7.332   7.697   1.595
  367EMI    C06 6966   7.166   7.388   1.533
  367EMI    H0F 6967   7.127   7.389   1.434
  367EMI    C0N 6968   7.241   7.256   1.557
  367EMI    H0O 6969   7.174   7.173   1.545
  367EMI    H0P 6970   7.321   7.247   1.487
  367EMI    H0Q 6971   7.281   7.255   1.657
  367EMI    N02 6972   7.259   7.501   1.550
  367EMI    H0E 6973   7.086   7.397   1.604
  368EMI    C01 6974   2.776   5.615   2.349
  368EMI    C04 6975   2.821   5.795   2.220
  368EMI    C03 6976   2.937   5.731   2.241
  368EMI    H07 6977   2.725   5.542   2.408
  368EMI    H09 6978   2.807   5.884   2.163
  368EMI    H08 6979   3.034   5.758   2.204
  368EMI    C05 6980   3.001   5.515   2.374
  368EMI    H0B 6981   2.952   5.421   2.385
  368EMI    H0C 6982   3.081   5.506   2.304
  368EMI    H0D 6983   3.040   5.546   2.468
  368EMI    N00 6984   2.905   5.615   2.325
  368EMI    C06 6985   2.576   5.750   2.296
  368EMI    H0F 6986   2.557   5.813   2.380
  368EMI    C0N 6987   2.535   5.823   2.167
  368EMI    H0O 6988   2.431   5.846   2.171
  368EMI    H0P 6989   2.592   5.913   2.157
  368EMI    H0Q 6990   2.554   5.759   2.083
  368EMI    N02 6991   2.719   5.718   2.291
  368EMI    H0E 6992   2.519   5.660   2.306
  369EMI    C01 6993   5.961   1.457   6.855
  369EMI    C04 6994   6.157   1.446   6.742
  369EMI    C03 6995   6.112   1.320   6.756
  369EMI    H07 6996   5.876   1.493   6.907
  369EMI    H09 6997   6.247   1.477   6.694
  369EMI    H08 6998   6.158   1.231   6.720
  369EMI    C05 6999   5.899   1.218   6.867
  369EMI    H0B 7000   5.797   1.251   6.869
  369EMI    H0C 7001   5.909   1.139   6.795
  369EMI    H0D 7002   5.927   1.182   6.963
  369EMI    N00 7003   5.985   1.331   6.829
  369EMI    C06 7004   6.065   1.678   6.818
  369EMI    H0F 7005   6.117   1.705   6.908
  369EMI    C0N 7006   6.141   1.734   6.696
  369EMI    H0O 7007   6.147   1.841   6.704
  369EMI    H0P 7008   6.240   1.694   6.694
  369EMI    H0Q 7009   6.090   1.707   6.606
  369EMI    N02 7010   6.058   1.532   6.808
  369EMI    H0E 7011   5.966   1.719   6.820
  370EMI    C01 7012   2.955   5.742   7.768
  370EMI    C04 7013   2.838   5.825   7.595
  370EMI    C03 7014   2.833   5.916   7.693
  370EMI    H07 7015   3.015   5.678   7.830
  370EMI    H09 7016   2.792   5.832   7.498
  370EMI    H08 7017   2.784   6.010   7.691
  370EMI    C05 7018   2.933   5.924   7.934
  370EMI    H0B 7019   3.027   5.892   7.974
  370EMI    H0C 7020   2.934   6.030   7.921
  370EMI    H0D 7021   2.855   5.896   8.002
  370EMI    N00 7022   2.910   5.859   7.804
  370EMI    C06 7023   2.950   5.590   7.573
  370EMI    H0F 7024   2.873   5.517   7.591
  370EMI    C0N 7025   2.956   5.620   7.422
  370EMI    H0O 7026   2.980   5.530   7.369
  370EMI    H0P 7027   2.862   5.658   7.389
  370EMI    H0Q 7028   3.032   5.693   7.404
  370EMI    N02 7029   2.917   5.713   7.646
  370EMI    H0E 7030   3.044   5.552   7.606
  371EMI    C01 7031   5.603   0.974   4.406
  371EMI    C04 7032   5.488   1.168   4.403
  371EMI    C03 7033   5.617   1.198   4.389
  371EMI    H07 7034   5.627   0.870   4.412
  371EMI    H09 7035   5.406   1.236   4.406
  371EMI    H08 7036   5.660   1.296   4.378
  371EMI    C05 7037   5.835   1.054   4.380
  371EMI    H0B 7038   5.856   0.960   4.333
  371EMI    H0C 7039   5.875   1.133   4.319
  371EMI    H0D 7040   5.879   1.057   4.477
  371EMI    N00 7041   5.689   1.071   4.392
  371EMI    C06 7042   5.359   0.943   4.431
  371EMI    H0F 7043   5.338   0.931   4.535
  371EMI    C0N 7044   5.241   1.016   4.364
  371EMI    H0O 7045   5.152   0.958   4.376
  371EMI    H0P 7046   5.228   1.112   4.409
  371EMI    H0Q 7047   5.262   1.028   4.259
  371EMI    N02 7048   5.481   1.022   4.414
  371EMI    H0E 7049   5.372   0.847   4.386
  372EMI    C01 7050   5.459   5.654   1.281
  372EMI    C04 7051   5.280   5.785   1.324
  372EMI    C03 7052   5.239   5.658   1.332
  372EMI    H07 7053   5.557   5.621   1.257
  372EMI    H09 7054   5.221   5.873   1.338
  372EMI    H08 7055   5.140   5.624   1.355
  372EMI    C05 7056   5.360   5.429   1.302
  372EMI    H0B 7057   5.457   5.395   1.331
  372EMI    H0C 7058   5.287   5.391   1.371
  372EMI    H0D 7059   5.338   5.394   1.204
  372EMI    N00 7060   5.357   5.576   1.304
  372EMI    C06 7061   5.510   5.896   1.270
  372EMI    H0F 7062   5.509   5.925   1.167
  372EMI    C0N 7063   5.461   6.013   1.357
  372EMI    H0O 7064   5.525   6.097   1.343
  372EMI    H0P 7065   5.361   6.038   1.329
  372EMI    H0Q 7066   5.463   5.984   1.460
  372EMI    N02 7067   5.423   5.780   1.290
  372EMI    H0E 7068   5.610   5.870   1.298
  373EMI    C01 7069   6.178   6.224   5.967
  373EMI    C04 7070   6.033   6.232   6.139
  373EMI    C03 7071   6.147   6.183   6.187
  373EMI    H07 7072   6.222   6.232   5.870
  373EMI    H09 7073   5.942   6.250   6.194
  373EMI    H08 7074   6.167   6.152   6.287
  373EMI    C05 7075   6.378   6.130   6.078
  373EMI    H0B 7076   6.437   6.183   6.005
  373EMI    H0C 7077   6.419   6.148   6.175
  373EMI    H0D 7078   6.381   6.026   6.056
  373EMI    N00 7079   6.240   6.178   6.073
  373EMI    C06 7080   5.957   6.314   5.903
  373EMI    H0F 7081   5.902   6.234   5.858
  373EMI    C0N 7082   5.861   6.407   5.978
  373EMI    H0O 7083   5.789   6.447   5.910
  373EMI    H0P 7084   5.810   6.352   6.054
  373EMI    H0Q 7085   5.916   6.487   6.023
  373EMI    N02 7086   6.056   6.258   5.997
  373EMI    H0E 7087   6.008   6.370   5.827
  374EMI    C01 7088   3.256   0.663   2.617
  374EMI    C04 7089   3.306   0.829   2.473
  374EMI    C03 7090   3.331   0.875   2.596
  374EMI    H07 7091   3.225   0.570   2.659
  374EMI    H09 7092   3.320   0.881   2.380
  374EMI    H08 7093   3.367   0.972   2.622
  374EMI    C05 7094   3.308   0.771   2.834
  374EMI    H0B 7095   3.329   0.672   2.871
  374EMI    H0C 7096   3.387   0.837   2.861
  374EMI    H0D 7097   3.216   0.806   2.875
  374EMI    N00 7098   3.297   0.766   2.687
  374EMI    C06 7099   3.219   0.601   2.381
  374EMI    H0F 7100   3.114   0.613   2.361
  374EMI    C0N 7101   3.300   0.633   2.254
  374EMI    H0O 7102   3.271   0.567   2.175
  374EMI    H0P 7103   3.280   0.734   2.225
  374EMI    H0Q 7104   3.404   0.621   2.275
  374EMI    N02 7105   3.258   0.692   2.490
  374EMI    H0E 7106   3.238   0.499   2.411
  375EMI    C01 7107   5.796   1.425   7.219
  375EMI    C04 7108   5.591   1.339   7.178
  375EMI    C03 7109   5.581   1.472   7.166
  375EMI    H07 7110   5.900   1.435   7.242
  375EMI    H09 7111   5.513   1.267   7.165
  375EMI    H08 7112   5.493   1.528   7.142
  375EMI    C05 7113   5.753   1.667   7.192
  375EMI    H0B 7114   5.855   1.676   7.163
  375EMI    H0C 7115   5.691   1.719   7.122
  375EMI    H0D 7116   5.739   1.708   7.289
  375EMI    N00 7117   5.715   1.525   7.193
  375EMI    C06 7118   5.789   1.179   7.235
  375EMI    H0F 7119   5.781   1.153   7.339
  375EMI    C0N 7120   5.713   1.074   7.150
  375EMI    H0O 7121   5.756   0.977   7.167
  375EMI    H0P 7122   5.610   1.073   7.179
  375EMI    H0Q 7123   5.722   1.099   7.047
  375EMI    N02 7124   5.731   1.312   7.212
  375EMI    H0E 7125   5.892   1.179   7.207
  376EMI    C01 7126   6.430   6.095   5.451
  376EMI    C04 7127   6.225   6.188   5.441
  376EMI    C03 7128   6.208   6.055   5.445
  376EMI    H07 7129   6.536   6.082   5.455
  376EMI    H09 7130   6.148   6.263   5.435
  376EMI    H08 7131   6.115   6.002   5.444
  376EMI    C05 7132   6.374   5.854   5.458
  376EMI    H0B 7133   6.465   5.840   5.513
  376EMI    H0C 7134   6.294   5.803   5.508
  376EMI    H0D 7135   6.385   5.816   5.359
  376EMI    N00 7136   6.342   5.998   5.452
  376EMI    C06 7137   6.436   6.342   5.442
  376EMI    H0F 7138   6.455   6.370   5.341
  376EMI    C0N 7139   6.344   6.447   5.508
  376EMI    H0O 7140   6.393   6.542   5.506
  376EMI    H0P 7141   6.252   6.452   5.454
  376EMI    H0Q 7142   6.325   6.419   5.609
  376EMI    N02 7143   6.370   6.211   5.445
  376EMI    H0E 7144   6.528   6.336   5.496
  377EMI    C01 7145   6.923   5.584   6.742
  377EMI    C04 7146   6.999   5.400   6.850
  377EMI    C03 7147   7.098   5.490   6.850
  377EMI    H07 7148   6.861   5.652   6.689
  377EMI    H09 7149   7.001   5.302   6.893
  377EMI    H08 7150   7.196   5.478   6.893
  377EMI    C05 7151   7.120   5.732   6.755
  377EMI    H0B 7152   7.052   5.814   6.751
  377EMI    H0C 7153   7.191   5.748   6.833
  377EMI    H0D 7154   7.172   5.725   6.661
  377EMI    N00 7155   7.046   5.608   6.780
  377EMI    C06 7156   6.756   5.402   6.755
  377EMI    H0F 7157   6.758   5.350   6.662
  377EMI    C0N 7158   6.723   5.304   6.869
  377EMI    H0O 7159   6.628   5.259   6.851
  377EMI    H0P 7160   6.798   5.227   6.872
  377EMI    H0Q 7161   6.721   5.356   6.962
  377EMI    N02 7162   6.887   5.464   6.780
  377EMI    H0E 7163   6.681   5.479   6.752
  378EMI    C01 7164   2.452   7.440   0.570
  378EMI    C04 7165   2.239   7.367   0.556
  378EMI    C03 7166   2.279   7.397   0.432
  378EMI    H07 7167   2.548   7.469   0.608
  378EMI    H09 7168   2.143   7.329   0.586
  378EMI    H08 7169   2.221   7.388   0.342
  378EMI    C05 7170   2.502   7.489   0.333
  378EMI    H0B 7171   2.604   7.468   0.356
  378EMI    H0C 7172   2.474   7.437   0.243
  378EMI    H0D 7173   2.489   7.594   0.318
  378EMI    N00 7174   2.417   7.444   0.444
  378EMI    C06 7175   2.356   7.377   0.789
  378EMI    H0F 7176   2.324   7.467   0.837
  378EMI    C0N 7177   2.263   7.262   0.829
  378EMI    H0O 7178   2.265   7.249   0.935
  378EMI    H0P 7179   2.163   7.284   0.797
  378EMI    H0Q 7180   2.295   7.172   0.781
  378EMI    N02 7181   2.353   7.396   0.643
  378EMI    H0E 7182   2.456   7.355   0.820
  379EMI    C01 7183   1.474   6.807   7.779
  379EMI    C04 7184   1.510   7.030   7.764
  379EMI    C03 7185   1.378   7.012   7.776
  379EMI    H07 7186   1.489   6.702   7.783
  379EMI    H09 7187   1.562   7.123   7.754
  379EMI    H08 7188   1.303   7.088   7.779
  379EMI    C05 7189   1.228   6.800   7.801
  379EMI    H0B 7190   1.241   6.709   7.855
  379EMI    H0C 7191   1.161   6.864   7.854
  379EMI    H0D 7192   1.188   6.778   7.704
  379EMI    N00 7193   1.358   6.867   7.786
  379EMI    C06 7194   1.713   6.865   7.755
  379EMI    H0F 7195   1.739   6.853   7.652
  379EMI    C0N 7196   1.795   6.982   7.814
  379EMI    H0O 7197   1.899   6.960   7.806
  379EMI    H0P 7198   1.773   7.072   7.760
  379EMI    H0Q 7199   1.769   6.994   7.917
  379EMI    N02 7200   1.570   6.896   7.766
  379EMI    H0E 7201   1.735   6.775   7.808
  380EMI    C01 7202   1.378   4.699   1.301
  380EMI    C04 7203   1.272   4.893   1.347
  380EMI    C03 7204   1.342   4.859   1.456
  380EMI    H07 7205   1.413   4.611   1.251
  380EMI    H09 7206   1.211   4.980   1.334
  380EMI    H08 7207   1.347   4.913   1.548
  380EMI    C05 7208   1.498   4.658   1.513
  380EMI    H0B 7209   1.571   4.605   1.456
  380EMI    H0C 7210   1.547   4.725   1.580
  380EMI    H0D 7211   1.440   4.588   1.570
  380EMI    N00 7212   1.409   4.733   1.423
  380EMI    C06 7213   1.241   4.783   1.113
  380EMI    H0F 7214   1.148   4.730   1.114
  380EMI    C0N 7215   1.218   4.926   1.061
  380EMI    H0O 7216   1.177   4.922   0.962
  380EMI    H0P 7217   1.150   4.976   1.126
  380EMI    H0Q 7218   1.311   4.979   1.059
  380EMI    N02 7219   1.297   4.788   1.248
  380EMI    H0E 7220   1.310   4.732   1.048
  381EMI    C01 7221   6.701   0.264   3.916
  381EMI    C04 7222   6.862   0.396   3.829
  381EMI    C03 7223   6.902   0.269   3.814
  381EMI    H07 7224   6.611   0.229   3.963
  381EMI    H09 7225   6.914   0.484   3.799
  381EMI    H08 7226   6.994   0.236   3.770
  381EMI    C05 7227   6.797   0.039   3.878
  381EMI    H0B 7228   6.696   0.003   3.874
  381EMI    H0C 7229   6.852  -0.000   3.795
  381EMI    H0D 7230   6.842   0.007   3.970
  381EMI    N00 7231   6.796   0.186   3.872
  381EMI    C06 7232   6.648   0.504   3.932
  381EMI    H0F 7233   6.673   0.537   4.031
  381EMI    C0N 7234   6.673   0.620   3.833
  381EMI    H0O 7235   6.612   0.704   3.859
  381EMI    H0P 7236   6.776   0.648   3.836
  381EMI    H0Q 7237   6.648   0.588   3.734
  381EMI    N02 7238   6.731   0.389   3.895
  381EMI    H0E 7239   6.545   0.476   3.929
  382EMI    C01 7240   5.442   0.323   5.877
  382EMI    C04 7241   5.219   0.330   5.910
  382EMI    C03 7242   5.251   0.204   5.880
  382EMI    H07 7243   5.545   0.351   5.868
  382EMI    H09 7244   5.122   0.368   5.932
  382EMI    H08 7245   5.184   0.121   5.872
  382EMI    C05 7246   5.476   0.084   5.823
  382EMI    H0B 7247   5.574   0.095   5.863
  382EMI    H0C 7248   5.430  -0.003   5.863
  382EMI    H0D 7249   5.481   0.076   5.716
  382EMI    N00 7250   5.396   0.202   5.859
  382EMI    C06 7251   5.359   0.549   5.936
  382EMI    H0F 7252   5.349   0.604   5.845
  382EMI    C0N 7253   5.250   0.593   6.035
  382EMI    H0O 7254   5.261   0.697   6.056
  382EMI    H0P 7255   5.154   0.574   5.993
  382EMI    H0Q 7256   5.261   0.538   6.127
  382EMI    N02 7257   5.345   0.405   5.908
  382EMI    H0E 7258   5.456   0.567   5.978
  383EMI    C01 7259   2.152   3.029   1.697
  383EMI    C04 7260   1.989   3.163   1.778
  383EMI    C03 7261   2.078   3.241   1.717
  383EMI    H07 7262   2.211   2.943   1.673
  383EMI    H09 7263   1.899   3.193   1.827
  383EMI    H08 7264   2.074   3.348   1.707
  383EMI    C05 7265   2.302   3.194   1.591
  383EMI    H0B 7266   2.332   3.116   1.524
  383EMI    H0C 7267   2.280   3.283   1.536
  383EMI    H0D 7268   2.382   3.214   1.660
  383EMI    N00 7269   2.183   3.152   1.666
  383EMI    C06 7270   1.974   2.905   1.815
  383EMI    H0F 7271   2.008   2.885   1.914
  383EMI    C0N 7272   1.821   2.926   1.817
  383EMI    H0O 7273   1.773   2.838   1.855
  383EMI    H0P 7274   1.798   3.009   1.881
  383EMI    H0Q 7275   1.786   2.945   1.718
  383EMI    N02 7276   2.039   3.026   1.764
  383EMI    H0E 7277   1.997   2.821   1.752
  384EMI    C01 7278   1.954   4.629   0.900
  384EMI    C04 7279   1.841   4.811   0.828
  384EMI    C03 7280   1.884   4.838   0.952
  384EMI    H07 7281   1.999   4.532   0.905
  384EMI    H09 7282   1.784   4.875   0.764
  384EMI    H08 7283   1.869   4.928   1.007
  384EMI    C05 7284   2.023   4.701   1.126
  384EMI    H0B 7285   2.107   4.636   1.115
  384EMI    H0C 7286   2.056   4.796   1.162
  384EMI    H0D 7287   1.953   4.659   1.196
  384EMI    N00 7288   1.957   4.718   0.996
  384EMI    C06 7289   1.864   4.603   0.671
  384EMI    H0F 7290   1.772   4.548   0.679
  384EMI    C0N 7291   1.853   4.704   0.555
  384EMI    H0O 7292   1.835   4.651   0.464
  384EMI    H0P 7293   1.772   4.771   0.574
  384EMI    H0Q 7294   1.944   4.759   0.548
  384EMI    N02 7295   1.888   4.675   0.797
  384EMI    H0E 7296   1.945   4.536   0.653
  385EMI    C01 7297   4.701   7.111   3.498
  385EMI    C04 7298   4.713   7.313   3.598
  385EMI    C03 7299   4.838   7.276   3.570
  385EMI    H07 7300   4.665   7.020   3.455
  385EMI    H09 7301   4.682   7.404   3.646
  385EMI    H08 7302   4.928   7.330   3.591
  385EMI    C05 7303   4.940   7.064   3.456
  385EMI    H0B 7304   4.909   7.005   3.373
  385EMI    H0C 7305   5.020   7.129   3.426
  385EMI    H0D 7306   4.974   6.999   3.535
  385EMI    N00 7307   4.827   7.145   3.505
  385EMI    C06 7308   4.480   7.202   3.560
  385EMI    H0F 7309   4.451   7.156   3.652
  385EMI    C0N 7310   4.425   7.346   3.555
  385EMI    H0O 7311   4.318   7.343   3.562
  385EMI    H0P 7312   4.465   7.402   3.637
  385EMI    H0Q 7313   4.454   7.391   3.462
  385EMI    N02 7314   4.627   7.205   3.551
  385EMI    H0E 7315   4.440   7.145   3.478
  386EMI    C01 7316   4.861   1.405   1.885
  386EMI    C04 7317   4.790   1.529   1.710
  386EMI    C03 7318   4.917   1.496   1.686
  386EMI    H07 7319   4.865   1.352   1.977
  386EMI    H09 7320   4.725   1.587   1.648
  386EMI    H08 7321   4.975   1.522   1.600
  386EMI    C05 7322   5.094   1.357   1.817
  386EMI    H0B 7323   5.087   1.267   1.875
  386EMI    H0C 7324   5.136   1.335   1.722
  386EMI    H0D 7325   5.158   1.427   1.868
  386EMI    N00 7326   4.961   1.416   1.800
  386EMI    C06 7327   4.626   1.478   1.908
  386EMI    H0F 7328   4.626   1.565   1.971
  386EMI    C0N 7329   4.514   1.491   1.803
  386EMI    H0O 7330   4.420   1.498   1.852
  386EMI    H0P 7331   4.530   1.579   1.744
  386EMI    H0Q 7332   4.515   1.405   1.739
  386EMI    N02 7333   4.756   1.469   1.840
  386EMI    H0E 7334   4.610   1.391   1.967
  387EMI    C01 7335   5.811   5.534   6.419
  387EMI    C04 7336   6.028   5.506   6.473
  387EMI    C03 7337   5.968   5.388   6.489
  387EMI    H07 7338   5.718   5.578   6.388
  387EMI    H09 7339   6.131   5.529   6.491
  387EMI    H08 7340   6.013   5.296   6.521
  387EMI    C05 7341   5.722   5.307   6.454
  387EMI    H0B 7342   5.649   5.329   6.380
  387EMI    H0C 7343   5.765   5.211   6.434
  387EMI    H0D 7344   5.675   5.305   6.551
  387EMI    N00 7345   5.827   5.409   6.453
  387EMI    C06 7346   5.944   5.742   6.398
  387EMI    H0F 7347   5.928   5.800   6.487
  387EMI    C0N 7348   6.088   5.764   6.348
  387EMI    H0O 7349   6.102   5.868   6.326
  387EMI    H0P 7350   6.157   5.734   6.424
  387EMI    H0Q 7351   6.104   5.706   6.259
  387EMI    N02 7352   5.924   5.599   6.428
  387EMI    H0E 7353   5.875   5.772   6.322
  388EMI    C01 7354   2.889   4.918   1.955
  388EMI    C04 7355   2.969   5.066   2.105
  388EMI    C03 7356   2.905   4.971   2.174
  388EMI    H07 7357   2.865   4.869   1.863
  388EMI    H09 7358   3.019   5.152   2.145
  388EMI    H08 7359   2.893   4.965   2.280
  388EMI    C05 7360   2.776   4.755   2.102
  388EMI    H0B 7361   2.796   4.682   2.027
  388EMI    H0C 7362   2.805   4.716   2.198
  388EMI    H0D 7363   2.672   4.778   2.103
  388EMI    N00 7364   2.854   4.877   2.074
  388EMI    C06 7365   3.012   5.106   1.851
  388EMI    H0F 7366   2.940   5.177   1.817
  388EMI    C0N 7367   3.140   5.179   1.896
  388EMI    H0O 7368   3.180   5.234   1.814
  388EMI    H0P 7369   3.116   5.246   1.976
  388EMI    H0Q 7370   3.212   5.107   1.930
  388EMI    N02 7371   2.957   5.030   1.964
  388EMI    H0E 7372   3.036   5.038   1.771
  389EMI    C01 7373   6.701   0.926   4.337
  389EMI    C04 7374   6.609   1.053   4.174
  389EMI    C03 7375   6.726   1.008   4.128
  389EMI    H07 7376   6.717   0.874   4.429
  389EMI    H09 7377   6.539   1.115   4.123
  389EMI    H08 7378   6.769   1.028   4.032
  389EMI    C05 7379   6.912   0.856   4.230
  389EMI    H0B 7380   6.908   0.768   4.290
  389EMI    H0C 7381   6.934   0.829   4.128
  389EMI    H0D 7382   6.990   0.921   4.266
  389EMI    N00 7383   6.783   0.926   4.235
  389EMI    C06 7384   6.481   1.020   4.400
  389EMI    H0F 7385   6.499   1.107   4.460
  389EMI    C0N 7386   6.353   1.040   4.317
  389EMI    H0O 7387   6.270   1.057   4.383
  389EMI    H0P 7388   6.365   1.126   4.253
  389EMI    H0Q 7389   6.335   0.954   4.257
  389EMI    N02 7390   6.595   0.998   4.310
  389EMI    H0E 7391   6.469   0.935   4.464
  390EMI    C01 7392   1.048   3.591   2.003
  390EMI    C04 7393   0.988   3.627   2.217
  390EMI    C03 7394   0.999   3.495   2.201
  390EMI    H07 7395   1.076   3.606   1.901
  390EMI    H09 7396   0.960   3.679   2.307
  390EMI    H08 7397   0.983   3.419   2.275
  390EMI    C05 7398   1.064   3.345   1.998
  390EMI    H0B 7399   1.137   3.356   1.920
  390EMI    H0C 7400   1.100   3.276   2.071
  390EMI    H0D 7401   0.973   3.308   1.955
  390EMI    N00 7402   1.039   3.475   2.061
  390EMI    C06 7403   1.020   3.831   2.057
  390EMI    H0F 7404   0.923   3.860   2.023
  390EMI    C0N 7405   1.056   3.910   2.184
  390EMI    H0O 7406   1.056   4.015   2.162
  390EMI    H0P 7407   0.984   3.890   2.261
  390EMI    H0Q 7408   1.153   3.881   2.218
  390EMI    N02 7409   1.020   3.687   2.087
  390EMI    H0E 7410   1.092   3.851   1.981
  391EMI    C01 7411   3.037   3.875   7.591
  391EMI    C04 7412   3.253   3.820   7.560
  391EMI    C03 7413   3.189   3.709   7.598
  391EMI    H07 7414   2.945   3.930   7.597
  391EMI    H09 7415   3.357   3.829   7.537
  391EMI    H08 7416   3.231   3.612   7.612
  391EMI    C05 7417   2.941   3.658   7.661
  391EMI    H0B 7418   2.848   3.692   7.619
  391EMI    H0C 7419   2.961   3.559   7.627
  391EMI    H0D 7420   2.934   3.659   7.767
  391EMI    N00 7421   3.049   3.748   7.618
  391EMI    C06 7422   3.176   4.066   7.519
  391EMI    H0F 7423   3.202   4.122   7.606
  391EMI    C0N 7424   3.292   4.073   7.418
  391EMI    H0O 7425   3.310   4.175   7.391
  391EMI    H0P 7426   3.381   4.032   7.462
  391EMI    H0Q 7427   3.267   4.017   7.330
  391EMI    N02 7428   3.152   3.926   7.556
  391EMI    H0E 7429   3.088   4.107   7.474
  392EMI    C01 7430   0.514   6.875   4.012
  392EMI    C04 7431   0.675   6.839   4.166
  392EMI    C03 7432   0.659   6.725   4.098
  392EMI    H07 7433   0.438   6.921   3.953
  392EMI    H09 7434   0.744   6.857   4.246
  392EMI    H08 7435   0.713   6.633   4.112
  392EMI    C05 7436   0.503   6.654   3.901
  392EMI    H0B 7437   0.470   6.707   3.813
  392EMI    H0C 7438   0.580   6.586   3.875
  392EMI    H0D 7439   0.420   6.601   3.943
  392EMI    N00 7440   0.554   6.751   3.999
  392EMI    C06 7441   0.561   7.073   4.152
  392EMI    H0F 7442   0.487   7.077   4.229
  392EMI    C0N 7443   0.694   7.128   4.206
  392EMI    H0O 7444   0.681   7.230   4.238
  392EMI    H0P 7445   0.726   7.069   4.290
  392EMI    H0Q 7446   0.769   7.125   4.130
  392EMI    N02 7447   0.580   6.934   4.108
  392EMI    H0E 7448   0.530   7.133   4.069
  393EMI    C01 7449   4.376   2.982   3.347
  393EMI    C04 7450   4.524   3.067   3.200
  393EMI    C03 7451   4.552   2.937   3.212
  393EMI    H07 7452   4.296   2.971   3.417
  393EMI    H09 7453   4.575   3.139   3.139
  393EMI    H08 7454   4.629   2.883   3.163
  393EMI    C05 7455   4.446   2.744   3.353
  393EMI    H0B 7456   4.344   2.721   3.377
  393EMI    H0C 7457   4.480   2.680   3.275
  393EMI    H0D 7458   4.507   2.731   3.440
  393EMI    N00 7459   4.454   2.884   3.308
  393EMI    C06 7460   4.345   3.224   3.308
  393EMI    H0F 7461   4.392   3.276   3.389
  393EMI    C0N 7462   4.357   3.307   3.179
  393EMI    H0O 7463   4.309   3.402   3.193
  393EMI    H0P 7464   4.460   3.322   3.156
  393EMI    H0Q 7465   4.309   3.255   3.099
  393EMI    N02 7466   4.410   3.093   3.289
  393EMI    H0E 7467   4.242   3.208   3.331
  394EMI    C01 7468   0.868   1.256   7.447
  394EMI    C04 7469   0.913   1.421   7.594
  394EMI    C03 7470   0.962   1.459   7.476
  394EMI    H07 7471   0.834   1.165   7.403
  394EMI    H09 7472   0.916   1.475   7.687
  394EMI    H08 7473   1.013   1.551   7.455
  394EMI    C05 7474   0.967   1.349   7.240
  394EMI    H0B 7475   0.895   1.291   7.186
  394EMI    H0C 7476   0.969   1.449   7.202
  394EMI    H0D 7477   1.064   1.304   7.228
  394EMI    N00 7478   0.932   1.351   7.383
  394EMI    C06 7479   0.786   1.207   7.674
  394EMI    H0F 7480   0.858   1.143   7.722
  394EMI    C0N 7481   0.722   1.299   7.780
  394EMI    H0O 7482   0.673   1.239   7.854
  394EMI    H0P 7483   0.797   1.359   7.826
  394EMI    H0Q 7484   0.650   1.363   7.733
  394EMI    N02 7485   0.853   1.289   7.572
  394EMI    H0E 7486   0.710   1.147   7.628
  395EMI    C01 7487   5.071   7.216   0.394
  395EMI    C04 7488   5.285   7.164   0.444
  395EMI    C03 7489   5.272   7.297   0.456
  395EMI    H07 7490   4.968   7.209   0.366
  395EMI    H09 7491   5.373   7.106   0.461
  395EMI    H08 7492   5.349   7.366   0.485
  395EMI    C05 7493   5.073   7.462   0.423
  395EMI    H0B 7494   4.969   7.454   0.447
  395EMI    H0C 7495   5.122   7.523   0.495
  395EMI    H0D 7496   5.084   7.506   0.326
  395EMI    N00 7497   5.133   7.328   0.423
  395EMI    C06 7498   5.118   6.974   0.378
  395EMI    H0F 7499   5.135   6.951   0.275
  395EMI    C0N 7500   5.205   6.883   0.466
  395EMI    H0O 7501   5.180   6.781   0.447
  395EMI    H0P 7502   5.309   6.899   0.443
  395EMI    H0Q 7503   5.188   6.906   0.569
  395EMI    N02 7504   5.153   7.115   0.404
  395EMI    H0E 7505   5.015   6.958   0.401
  396EMI    C01 7506   3.823   7.487   2.829
  396EMI    C04 7507   3.803   7.438   3.048
  396EMI    C03 7508   3.932   7.461   3.025
  396EMI    H07 7509   3.801   7.505   2.726
  396EMI    H09 7510   3.758   7.412   3.142
  396EMI    H08 7511   4.012   7.458   3.096
  396EMI    C05 7512   4.066   7.525   2.810
  396EMI    H0B 7513   4.044   7.591   2.729
  396EMI    H0C 7514   4.135   7.572   2.877
  396EMI    H0D 7515   4.110   7.435   2.772
  396EMI    N00 7516   3.942   7.492   2.882
  396EMI    C06 7517   3.590   7.440   2.897
  396EMI    H0F 7518   3.569   7.338   2.871
  396EMI    C0N 7519   3.513   7.477   3.025
  396EMI    H0O 7520   3.408   7.466   3.009
  396EMI    H0P 7521   3.544   7.413   3.105
  396EMI    H0Q 7522   3.535   7.579   3.051
  396EMI    N02 7523   3.734   7.455   2.920
  396EMI    H0E 7524   3.559   7.504   2.817
  397EMI    C01 7525   1.042   5.055   7.480
  397EMI    C04 7526   1.147   4.858   7.512
  397EMI    C03 7527   1.237   4.955   7.532
  397EMI    H07 7528   0.967   5.129   7.459
  397EMI    H09 7529   1.163   4.752   7.520
  397EMI    H08 7530   1.340   4.942   7.558
  397EMI    C05 7531   1.225   5.215   7.521
  397EMI    H0B 7532   1.150   5.285   7.552
  397EMI    H0C 7533   1.305   5.214   7.593
  397EMI    H0D 7534   1.264   5.245   7.426
  397EMI    N00 7535   1.166   5.081   7.510
  397EMI    C06 7536   0.893   4.860   7.449
  397EMI    H0F 7537   0.887   4.841   7.344
  397EMI    C0N 7538   0.885   4.727   7.526
  397EMI    H0O 7539   0.792   4.678   7.504
  397EMI    H0P 7540   0.966   4.663   7.496
  397EMI    H0Q 7541   0.892   4.746   7.631
  397EMI    N02 7542   1.021   4.926   7.479
  397EMI    H0E 7543   0.813   4.923   7.479
  398EMI    C01 7544   1.163   2.397   1.596
  398EMI    C04 7545   1.371   2.370   1.513
  398EMI    C03 7546   1.381   2.450   1.620
  398EMI    H07 7547   1.057   2.390   1.611
  398EMI    H09 7548   1.451   2.336   1.450
  398EMI    H08 7549   1.470   2.494   1.659
  398EMI    C05 7550   1.206   2.546   1.788
  398EMI    H0B 7551   1.120   2.503   1.834
  398EMI    H0C 7552   1.287   2.548   1.858
  398EMI    H0D 7553   1.184   2.646   1.757
  398EMI    N00 7554   1.245   2.466   1.671
  398EMI    C06 7555   1.170   2.250   1.397
  398EMI    H0F 7556   1.143   2.309   1.313
  398EMI    C0N 7557   1.273   2.144   1.354
  398EMI    H0O 7558   1.230   2.081   1.279
  398EMI    H0P 7559   1.360   2.193   1.315
  398EMI    H0Q 7560   1.301   2.085   1.439
  398EMI    N02 7561   1.229   2.337   1.501
  398EMI    H0E 7562   1.084   2.202   1.437
  399EMI    C01 7563   6.296   6.281   1.834
  399EMI    C04 7564   6.172   6.093   1.835
  399EMI    C03 7565   6.285   6.066   1.901
  399EMI    H07 7566   6.330   6.382   1.817
  399EMI    H09 7567   6.090   6.026   1.817
  399EMI    H08 7568   6.312   5.973   1.946
  399EMI    C05 7569   6.496   6.208   1.959
  399EMI    H0B 7570   6.508   6.310   1.990
  399EMI    H0C 7571   6.505   6.144   2.045
  399EMI    H0D 7572   6.572   6.183   1.888
  399EMI    N00 7573   6.363   6.190   1.899
  399EMI    C06 7574   6.080   6.307   1.717
  399EMI    H0F 7575   6.099   6.296   1.612
  399EMI    C0N 7576   5.940   6.252   1.750
  399EMI    H0O 7577   5.866   6.305   1.695
  399EMI    H0P 7578   5.936   6.148   1.724
  399EMI    H0Q 7579   5.922   6.263   1.855
  399EMI    N02 7580   6.182   6.233   1.793
  399EMI    H0E 7581   6.084   6.411   1.743
  400EMI    C01 7582   3.966   7.190   0.430
  400EMI    C04 7583   3.829   7.012   0.457
  400EMI    C03 7584   3.802   7.065   0.337
  400EMI    H07 7585   4.040   7.265   0.447
  400EMI    H09 7586   3.782   6.926   0.501
  400EMI    H08 7587   3.730   7.030   0.266
  400EMI    C05 7588   3.899   7.269   0.206
  400EMI    H0B 7589   3.998   7.307   0.196
  400EMI    H0C 7590   3.872   7.214   0.118
  400EMI    H0D 7591   3.831   7.350   0.219
  400EMI    N00 7592   3.892   7.180   0.322
  400EMI    C06 7593   3.997   7.075   0.647
  400EMI    H0F 7594   3.942   7.129   0.721
  400EMI    C0N 7595   3.994   6.925   0.682
  400EMI    H0O 7596   4.040   6.910   0.778
  400EMI    H0P 7597   3.893   6.890   0.684
  400EMI    H0Q 7598   4.049   6.870   0.608
  400EMI    N02 7599   3.935   7.095   0.515
  400EMI    H0E 7600   4.098   7.109   0.644
  401EMI    C01 7601   1.408   1.842   2.560
  401EMI    C04 7602   1.579   1.963   2.477
  401EMI    C03 7603   1.498   1.934   2.375
  401EMI    H07 7604   1.343   1.789   2.627
  401EMI    H09 7605   1.670   2.020   2.473
  401EMI    H08 7606   1.511   1.962   2.272
  401EMI    C05 7607   1.275   1.800   2.356
  401EMI    H0B 7608   1.189   1.795   2.420
  401EMI    H0C 7609   1.253   1.864   2.273
  401EMI    H0D 7610   1.299   1.702   2.321
  401EMI    N00 7611   1.388   1.855   2.432
  401EMI    C06 7612   1.573   1.909   2.732
  401EMI    H0F 7613   1.638   1.825   2.748
  401EMI    C0N 7614   1.651   2.040   2.750
  401EMI    H0O 7615   1.691   2.044   2.850
  401EMI    H0P 7616   1.732   2.043   2.680
  401EMI    H0Q 7617   1.586   2.123   2.734
  401EMI    N02 7618   1.518   1.902   2.596
  401EMI    H0E 7619   1.492   1.905   2.802
  402EMI    C01 7620   2.965   6.074   7.486
  402EMI    C04 7621   2.945   5.998   7.274
  402EMI    C03 7622   3.072   5.978   7.312
  402EMI    H07 7623   2.943   6.116   7.582
  402EMI    H09 7624   2.901   5.974   7.180
  402EMI    H08 7625   3.150   5.935   7.253
  402EMI    C05 7626   3.203   6.027   7.533
  402EMI    H0B 7627   3.175   6.018   7.636
  402EMI    H0C 7628   3.264   5.944   7.505
  402EMI    H0D 7629   3.257   6.118   7.518
  402EMI    N00 7630   3.082   6.028   7.450
  402EMI    C06 7631   2.737   6.100   7.394
  402EMI    H0F 7632   2.727   6.201   7.361
  402EMI    C0N 7633   2.654   6.008   7.303
  402EMI    H0O 7634   2.551   6.037   7.307
  402EMI    H0P 7635   2.689   6.016   7.203
  402EMI    H0Q 7636   2.663   5.907   7.337
  402EMI    N02 7637   2.878   6.060   7.389
  402EMI    H0E 7638   2.701   6.092   7.495
  403EMI    C01 7639   4.151   1.384   6.691
  403EMI    C04 7640   4.203   1.604   6.686
  403EMI    C03 7641   4.070   1.595   6.688
  403EMI    H07 7642   4.158   1.278   6.694
  403EMI    H09 7643   4.262   1.693   6.682
  403EMI    H08 7644   4.000   1.676   6.688
  403EMI    C05 7645   3.904   1.394   6.696
  403EMI    H0B 7646   3.907   1.300   6.749
  403EMI    H0C 7647   3.837   1.461   6.746
  403EMI    H0D 7648   3.869   1.377   6.596
  403EMI    N00 7649   4.039   1.452   6.692
  403EMI    C06 7650   4.394   1.426   6.686
  403EMI    H0F 7651   4.426   1.414   6.584
  403EMI    C0N 7652   4.479   1.534   6.754
  403EMI    H0O 7653   4.582   1.505   6.753
  403EMI    H0P 7654   4.468   1.627   6.702
  403EMI    H0Q 7655   4.447   1.546   6.856
  403EMI    N02 7656   4.253   1.466   6.688
  403EMI    H0E 7657   4.406   1.333   6.738
  404EMI    C01 7658   3.157   6.467   3.707
  404EMI    C04 7659   3.279   6.456   3.897
  404EMI    C03 7660   3.270   6.585   3.862
  404EMI    H07 7661   3.099   6.440   3.622
  404EMI    H09 7662   3.330   6.416   3.981
  404EMI    H08 7663   3.313   6.669   3.914
  404EMI    C05 7664   3.155   6.710   3.664
  404EMI    H0B 7665   3.061   6.695   3.615
  404EMI    H0C 7666   3.147   6.793   3.731
  404EMI    H0D 7667   3.231   6.730   3.591
  404EMI    N00 7668   3.191   6.589   3.739
  404EMI    C06 7669   3.187   6.236   3.791
  404EMI    H0F 7670   3.267   6.192   3.735
  404EMI    C0N 7671   3.188   6.181   3.935
  404EMI    H0O 7672   3.175   6.074   3.932
  404EMI    H0P 7673   3.281   6.204   3.981
  404EMI    H0Q 7674   3.108   6.225   3.990
  404EMI    N02 7675   3.205   6.382   3.794
  404EMI    H0E 7676   3.094   6.213   3.744
  405EMI    C01 7677   7.432   3.356   2.695
  405EMI    C04 7678   7.431   3.510   2.530
  405EMI    C03 7679   7.339   3.419   2.499
  405EMI    H07 7680   7.456   3.302   2.784
  405EMI    H09 7681   7.458   3.597   2.473
  405EMI    H08 7682   7.275   3.419   2.413
  405EMI    C05 7683   7.256   3.202   2.617
  405EMI    H0B 7684   7.239   3.178   2.720
  405EMI    H0C 7685   7.162   3.221   2.570
  405EMI    H0D 7686   7.304   3.119   2.569
  405EMI    N00 7687   7.341   3.321   2.608
  405EMI    C06 7688   7.598   3.537   2.730
  405EMI    H0F 7689   7.693   3.500   2.697
  405EMI    C0N 7690   7.589   3.688   2.702
  405EMI    H0O 7691   7.667   3.739   2.755
  405EMI    H0P 7692   7.600   3.706   2.597
  405EMI    H0Q 7693   7.494   3.725   2.735
  405EMI    N02 7694   7.491   3.467   2.657
  405EMI    H0E 7695   7.587   3.519   2.834
  406EMI    C01 7696   6.819   3.233   4.569
  406EMI    C04 7697   6.974   3.339   4.444
  406EMI    C03 7698   7.010   3.211   4.451
  406EMI    H07 7699   6.733   3.212   4.629
  406EMI    H09 7700   7.025   3.418   4.392
  406EMI    H08 7701   7.095   3.165   4.406
  406EMI    C05 7702   6.905   3.002   4.567
  406EMI    H0B 7703   6.803   2.970   4.579
  406EMI    H0C 7704   6.951   2.945   4.489
  406EMI    H0D 7705   6.958   2.986   4.658
  406EMI    N00 7706   6.907   3.144   4.532
  406EMI    C06 7707   6.773   3.475   4.542
  406EMI    H0F 7708   6.808   3.524   4.630
  406EMI    C0N 7709   6.792   3.567   4.421
  406EMI    H0O 7710   6.736   3.658   4.436
  406EMI    H0P 7711   6.895   3.591   4.409
  406EMI    H0Q 7712   6.756   3.518   4.332
  406EMI    N02 7713   6.850   3.351   4.521
  406EMI    H0E 7714   6.669   3.451   4.554
  407EMI    C01 7715   7.557   2.534   1.603
  407EMI    C04 7716   7.414   2.663   1.484
  407EMI    C03 7717   7.537   2.685   1.436
  407EMI    H07 7718   7.597   2.465   1.674
  407EMI    H09 7719   7.323   2.708   1.450
  407EMI    H08 7720   7.564   2.751   1.356
  407EMI    C05 7721   7.773   2.591   1.498
  407EMI    H0B 7722   7.806   2.494   1.526
  407EMI    H0C 7723   7.798   2.610   1.395
  407EMI    H0D 7724   7.821   2.664   1.560
  407EMI    N00 7725   7.627   2.600   1.515
  407EMI    C06 7726   7.321   2.510   1.674
  407EMI    H0F 7727   7.307   2.572   1.760
  407EMI    C0N 7728   7.191   2.507   1.591
  407EMI    H0O 7729   7.112   2.467   1.651
  407EMI    H0P 7730   7.166   2.607   1.560
  407EMI    H0Q 7731   7.205   2.445   1.505
  407EMI    N02 7732   7.430   2.565   1.592
  407EMI    H0E 7733   7.346   2.411   1.705
  408EMI    C01 7734   4.490   4.383   4.319
  408EMI    C04 7735   4.566   4.570   4.218
  408EMI    C03 7736   4.469   4.520   4.141
  408EMI    H07 7737   4.476   4.304   4.389
  408EMI    H09 7738   4.624   4.658   4.199
  408EMI    H08 7739   4.434   4.559   4.048
  408EMI    C05 7740   4.315   4.310   4.161
  408EMI    H0B 7741   4.265   4.266   4.245
  408EMI    H0C 7742   4.244   4.367   4.104
  408EMI    H0D 7743   4.357   4.234   4.100
  408EMI    N00 7744   4.421   4.399   4.209
  408EMI    C06 7745   4.671   4.495   4.445
  408EMI    H0F 7746   4.763   4.443   4.422
  408EMI    C0N 7747   4.701   4.644   4.467
  408EMI    H0O 7748   4.770   4.655   4.548
  408EMI    H0P 7749   4.745   4.685   4.378
  408EMI    H0Q 7750   4.610   4.696   4.489
  408EMI    N02 7751   4.577   4.480   4.333
  408EMI    H0E 7752   4.628   4.454   4.533
  409EMI    C01 7753   5.555   3.733   7.579
  409EMI    C04 7754   5.780   3.750   7.593
  409EMI    C03 7755   5.730   3.873   7.613
  409EMI    H07 7756   5.456   3.695   7.567
  409EMI    H09 7757   5.883   3.723   7.592
  409EMI    H08 7758   5.784   3.963   7.631
  409EMI    C05 7759   5.486   3.967   7.618
  409EMI    H0B 7760   5.395   3.928   7.658
  409EMI    H0C 7761   5.526   4.041   7.685
  409EMI    H0D 7762   5.467   4.012   7.523
  409EMI    N00 7763   5.584   3.859   7.603
  409EMI    C06 7764   5.671   3.518   7.545
  409EMI    H0F 7765   5.678   3.501   7.440
  409EMI    C0N 7766   5.796   3.459   7.614
  409EMI    H0O 7767   5.800   3.353   7.595
  409EMI    H0P 7768   5.884   3.506   7.576
  409EMI    H0Q 7769   5.789   3.476   7.720
  409EMI    N02 7770   5.665   3.662   7.571
  409EMI    H0E 7771   5.583   3.471   7.584
  410EMI    C01 7772   5.832   1.484   5.785
  410EMI    C04 7773   5.869   1.669   5.661
  410EMI    C03 7774   5.903   1.563   5.586
  410EMI    H07 7775   5.806   1.418   5.865
  410EMI    H09 7776   5.873   1.772   5.633
  410EMI    H08 7777   5.941   1.565   5.486
  410EMI    C05 7778   5.902   1.306   5.628
  410EMI    H0B 7779   5.832   1.242   5.678
  410EMI    H0C 7780   5.888   1.297   5.522
  410EMI    H0D 7781   6.002   1.277   5.654
  410EMI    N00 7782   5.878   1.445   5.669
  410EMI    C06 7783   5.776   1.693   5.904
  410EMI    H0F 7784   5.858   1.717   5.967
  410EMI    C0N 7785   5.710   1.823   5.853
  410EMI    H0O 7786   5.675   1.880   5.937
  410EMI    H0P 7787   5.782   1.880   5.798
  410EMI    H0Q 7788   5.627   1.798   5.790
  410EMI    N02 7789   5.823   1.614   5.789
  410EMI    H0E 7790   5.704   1.636   5.959
  411EMI    C01 7791   1.395   0.317   2.791
  411EMI    C04 7792   1.464   0.333   2.577
  411EMI    C03 7793   1.372   0.236   2.581
  411EMI    H07 7794   1.384   0.333   2.896
  411EMI    H09 7795   1.518   0.367   2.490
  411EMI    H08 7796   1.337   0.176   2.500
  411EMI    C05 7797   1.229   0.134   2.775
  411EMI    H0B 7798   1.180   0.179   2.859
  411EMI    H0C 7799   1.157   0.112   2.699
  411EMI    H0D 7800   1.278   0.044   2.806
  411EMI    N00 7801   1.330   0.228   2.721
  411EMI    C06 7802   1.567   0.491   2.757
  411EMI    H0F 7803   1.661   0.450   2.785
  411EMI    C0N 7804   1.587   0.591   2.641
  411EMI    H0O 7805   1.653   0.669   2.672
  411EMI    H0P 7806   1.631   0.539   2.557
  411EMI    H0Q 7807   1.493   0.632   2.612
  411EMI    N02 7808   1.477   0.384   2.714
  411EMI    H0E 7809   1.523   0.543   2.840
  412EMI    C01 7810   0.959   5.865   1.610
  412EMI    C04 7811   0.912   6.082   1.566
  412EMI    C03 7812   1.044   6.066   1.552
  412EMI    H07 7813   0.949   5.762   1.635
  412EMI    H09 7814   0.856   6.172   1.552
  412EMI    H08 7815   1.115   6.141   1.525
  412EMI    C05 7816   1.204   5.861   1.579
  412EMI    H0B 7817   1.193   5.758   1.552
  412EMI    H0C 7818   1.266   5.911   1.507
  412EMI    H0D 7819   1.248   5.868   1.676
  412EMI    N00 7820   1.071   5.925   1.581
  412EMI    C06 7821   0.718   5.919   1.629
  412EMI    H0F 7822   0.696   5.934   1.733
  412EMI    C0N 7823   0.629   6.011   1.544
  412EMI    H0O 7824   0.526   5.988   1.563
  412EMI    H0P 7825   0.648   6.113   1.570
  412EMI    H0Q 7826   0.650   5.996   1.441
  412EMI    N02 7827   0.859   5.950   1.603
  412EMI    H0E 7828   0.699   5.817   1.603
  413EMI    C01 7829   4.494   4.638   6.211
  413EMI    C04 7830   4.692   4.620   6.318
  413EMI    C03 7831   4.658   4.750   6.319
  413EMI    H07 7832   4.404   4.614   6.158
  413EMI    H09 7833   4.780   4.577   6.361
  413EMI    H08 7834   4.713   4.831   6.362
  413EMI    C05 7835   4.452   4.881   6.225
  413EMI    H0B 7836   4.348   4.858   6.221
  413EMI    H0C 7837   4.471   4.951   6.304
  413EMI    H0D 7838   4.482   4.924   6.131
  413EMI    N00 7839   4.529   4.758   6.249
  413EMI    C06 7840   4.578   4.406   6.223
  413EMI    H0F 7841   4.625   4.384   6.129
  413EMI    C0N 7842   4.651   4.331   6.336
  413EMI    H0O 7843   4.647   4.226   6.317
  413EMI    H0P 7844   4.753   4.362   6.339
  413EMI    H0Q 7845   4.604   4.353   6.429
  413EMI    N02 7846   4.584   4.550   6.248
  413EMI    H0E 7847   4.476   4.374   6.219
  414EMI    C01 7848   5.219   0.626   4.013
  414EMI    C04 7849   5.224   0.420   4.105
  414EMI    C03 7850   5.351   0.461   4.091
  414EMI    H07 7851   5.184   0.718   3.971
  414EMI    H09 7852   5.191   0.327   4.145
  414EMI    H08 7853   5.439   0.407   4.119
  414EMI    C05 7854   5.460   0.679   3.998
  414EMI    H0B 7855   5.432   0.782   4.007
  414EMI    H0C 7856   5.540   0.659   4.066
  414EMI    H0D 7857   5.491   0.659   3.898
  414EMI    N00 7858   5.344   0.595   4.032
  414EMI    C06 7859   4.994   0.529   4.048
  414EMI    H0F 7860   4.962   0.488   3.954
  414EMI    C0N 7861   4.938   0.443   4.163
  414EMI    H0O 7862   4.831   0.443   4.159
  414EMI    H0P 7863   4.974   0.343   4.154
  414EMI    H0Q 7864   4.970   0.484   4.256
  414EMI    N02 7865   5.141   0.529   4.053
  414EMI    H0E 7866   4.958   0.629   4.057
  415EMI    C01 7867   3.144   7.397   1.056
  415EMI    C04 7868   3.105   7.207   1.171
  415EMI    C03 7869   3.235   7.207   1.138
  415EMI    H07 7870   3.131   7.491   1.007
  415EMI    H09 7871   3.053   7.131   1.226
  415EMI    H08 7872   3.307   7.132   1.162
  415EMI    C05 7873   3.385   7.375   1.007
  415EMI    H0B 7874   3.389   7.482   1.006
  415EMI    H0C 7875   3.466   7.337   1.067
  415EMI    H0D 7876   3.395   7.338   0.907
  415EMI    N00 7877   3.257   7.332   1.064
  415EMI    C06 7878   2.909   7.374   1.128
  415EMI    H0F 7879   2.853   7.336   1.045
  415EMI    C0N 7880   2.849   7.319   1.259
  415EMI    H0O 7881   2.747   7.350   1.267
  415EMI    H0P 7882   2.853   7.212   1.258
  415EMI    H0Q 7883   2.904   7.356   1.342
  415EMI    N02 7884   3.049   7.331   1.116
  415EMI    H0E 7885   2.904   7.481   1.129
  416EMI    C01 7886   6.298   3.742   1.270
  416EMI    C04 7887   6.479   3.758   1.404
  416EMI    C03 7888   6.446   3.629   1.398
  416EMI    H07 7889   6.216   3.766   1.205
  416EMI    H09 7890   6.560   3.801   1.458
  416EMI    H08 7891   6.495   3.548   1.447
  416EMI    C05 7892   6.256   3.498   1.275
  416EMI    H0B 7893   6.213   3.509   1.177
  416EMI    H0C 7894   6.325   3.416   1.275
  416EMI    H0D 7895   6.179   3.480   1.346
  416EMI    N00 7896   6.328   3.621   1.311
  416EMI    C06 7897   6.378   3.974   1.296
  416EMI    H0F 7898   6.318   4.021   1.371
  416EMI    C0N 7899   6.522   4.030   1.304
  416EMI    H0O 7900   6.519   4.136   1.287
  416EMI    H0P 7901   6.562   4.011   1.401
  416EMI    H0Q 7902   6.583   3.984   1.230
  416EMI    N02 7903   6.382   3.829   1.320
  416EMI    H0E 7904   6.338   3.993   1.199
  417EMI    C01 7905   6.660   2.390   5.739
  417EMI    C04 7906   6.734   2.599   5.697
  417EMI    C03 7907   6.700   2.545   5.580
  417EMI    H07 7908   6.633   2.299   5.789
  417EMI    H09 7909   6.772   2.698   5.714
  417EMI    H08 7910   6.705   2.591   5.483
  417EMI    C05 7911   6.604   2.312   5.511
  417EMI    H0B 7912   6.532   2.248   5.557
  417EMI    H0C 7913   6.560   2.363   5.429
  417EMI    H0D 7914   6.687   2.253   5.476
  417EMI    N00 7915   6.652   2.409   5.610
  417EMI    C06 7916   6.730   2.511   5.943
  417EMI    H0F 7917   6.829   2.480   5.967
  417EMI    C0N 7918   6.712   2.659   5.983
  417EMI    H0O 7919   6.728   2.669   6.088
  417EMI    H0P 7920   6.782   2.719   5.929
  417EMI    H0Q 7921   6.612   2.690   5.959
  417EMI    N02 7922   6.707   2.496   5.798
  417EMI    H0E 7923   6.659   2.451   5.996
  418EMI    C01 7924   2.455   6.215   0.798
  418EMI    C04 7925   2.317   6.044   0.746
  418EMI    C03 7926   2.272   6.099   0.859
  418EMI    H07 7927   2.535   6.286   0.796
  418EMI    H09 7928   2.275   5.962   0.693
  418EMI    H08 7929   2.186   6.068   0.915
  418EMI    C05 7930   2.353   6.297   1.008
  418EMI    H0B 7931   2.393   6.393   0.983
  418EMI    H0C 7932   2.250   6.308   1.036
  418EMI    H0D 7933   2.408   6.255   1.089
  418EMI    N00 7934   2.363   6.208   0.891
  418EMI    C06 7935   2.519   6.098   0.590
  418EMI    H0F 7936   2.597   6.029   0.614
  418EMI    C0N 7937   2.433   6.040   0.477
  418EMI    H0O 7938   2.494   6.023   0.390
  418EMI    H0P 7939   2.390   5.947   0.509
  418EMI    H0Q 7940   2.355   6.109   0.452
  418EMI    N02 7941   2.436   6.122   0.709
  418EMI    H0E 7942   2.562   6.191   0.558
  419EMI    C01 7943   2.748   5.244   2.866
  419EMI    C04 7944   2.874   5.065   2.811
  419EMI    C03 7945   2.860   5.064   2.944
  419EMI    H07 7946   2.689   5.333   2.860
  419EMI    H09 7947   2.927   4.994   2.752
  419EMI    H08 7948   2.901   4.993   3.013
  419EMI    C05 7949   2.737   5.222   3.112
  419EMI    H0B 7950   2.643   5.273   3.107
  419EMI    H0C 7951   2.728   5.136   3.174
  419EMI    H0D 7952   2.811   5.288   3.153
  419EMI    N00 7953   2.778   5.182   2.977
  419EMI    C06 7954   2.787   5.223   2.623
  419EMI    H0F 7955   2.867   5.289   2.597
  419EMI    C0N 7956   2.792   5.099   2.532
  419EMI    H0O 7957   2.782   5.129   2.430
  419EMI    H0P 7958   2.885   5.048   2.546
  419EMI    H0Q 7959   2.712   5.033   2.557
  419EMI    N02 7960   2.800   5.182   2.763
  419EMI    H0E 7961   2.694   5.274   2.609
  420EMI    C01 7962   6.552   3.872   2.600
  420EMI    C04 7963   6.677   3.694   2.539
  420EMI    C03 7964   6.549   3.655   2.537
  420EMI    H07 7965   6.521   3.970   2.631
  420EMI    H09 7966   6.763   3.634   2.516
  420EMI    H08 7967   6.511   3.558   2.511
  420EMI    C05 7968   6.324   3.777   2.589
  420EMI    H0B 7969   6.289   3.876   2.568
  420EMI    H0C 7970   6.280   3.708   2.519
  420EMI    H0D 7971   6.295   3.750   2.688
  420EMI    N00 7972   6.470   3.772   2.577
  420EMI    C06 7973   6.794   3.920   2.597
  420EMI    H0F 7974   6.830   3.912   2.697
  420EMI    C0N 7975   6.904   3.874   2.500
  420EMI    H0O 7976   6.991   3.936   2.512
  420EMI    H0P 7977   6.930   3.772   2.521
  420EMI    H0Q 7978   6.869   3.881   2.399
  420EMI    N02 7979   6.675   3.834   2.580
  420EMI    H0E 7980   6.768   4.021   2.576
  421EMI    C01 7981   1.036   0.650   6.476
  421EMI    C04 7982   0.870   0.800   6.500
  421EMI    C03 7983   0.812   0.680   6.487
  421EMI    H07 7984   1.133   0.605   6.467
  421EMI    H09 7985   0.820   0.894   6.514
  421EMI    H08 7986   0.708   0.658   6.487
  421EMI    C05 7987   0.908   0.439   6.453
  421EMI    H0B 7988   0.993   0.390   6.495
  421EMI    H0C 7989   0.819   0.406   6.503
  421EMI    H0D 7990   0.902   0.417   6.349
  421EMI    N00 7991   0.923   0.585   6.471
  421EMI    C06 7992   1.118   0.881   6.503
  421EMI    H0F 7993   1.140   0.919   6.405
  421EMI    C0N 7994   1.067   0.996   6.592
  421EMI    H0O 7995   1.142   1.072   6.599
  421EMI    H0P 7996   0.978   1.038   6.549
  421EMI    H0Q 7997   1.045   0.958   6.690
  421EMI    N02 7998   1.014   0.778   6.493
  421EMI    H0E 7999   1.206   0.839   6.545
  422EMI    C01 8000   0.558   2.594   0.669
  422EMI    C04 8001   0.537   2.498   0.466
  422EMI    C03 8002   0.415   2.506   0.519
  422EMI    H07 8003   0.598   2.639   0.757
  422EMI    H09 8004   0.564   2.458   0.370
  422EMI    H08 8005   0.323   2.473   0.474
  422EMI    C05 8006   0.323   2.597   0.745
  422EMI    H0B 8007   0.348   2.683   0.804
  422EMI    H0C 8008   0.232   2.616   0.691
  422EMI    H0D 8009   0.308   2.513   0.810
  422EMI    N00 8010   0.431   2.568   0.650
  422EMI    C06 8011   0.774   2.569   0.552
  422EMI    H0F 8012   0.821   2.481   0.590
  422EMI    C0N 8013   0.810   2.586   0.403
  422EMI    H0O 8014   0.916   2.596   0.393
  422EMI    H0P 8015   0.776   2.501   0.348
  422EMI    H0Q 8016   0.762   2.674   0.365
  422EMI    N02 8017   0.628   2.556   0.566
  422EMI    H0E 8018   0.807   2.655   0.607
  423EMI    C01 8019   2.776   2.987   7.496
  423EMI    C04 8020   2.781   3.207   7.548
  423EMI    C03 8021   2.653   3.169   7.551
  423EMI    H07 8022   2.805   2.888   7.470
  423EMI    H09 8023   2.820   3.305   7.567
  423EMI    H08 8024   2.568   3.230   7.574
  423EMI    C05 8025   2.534   2.941   7.509
  423EMI    H0B 8026   2.560   2.840   7.534
  423EMI    H0C 8027   2.459   2.977   7.576
  423EMI    H0D 8028   2.495   2.943   7.409
  423EMI    N00 8029   2.653   3.026   7.517
  423EMI    C06 8030   3.005   3.081   7.497
  423EMI    H0F 8031   3.031   3.103   7.395
  423EMI    C0N 8032   3.071   3.185   7.590
  423EMI    H0O 8033   3.177   3.180   7.578
  423EMI    H0P 8034   3.036   3.283   7.564
  423EMI    H0Q 8035   3.045   3.163   7.691
  423EMI    N02 8036   2.859   3.087   7.512
  423EMI    H0E 8037   3.039   2.983   7.522
  424EMI    C01 8038   3.170   1.012   1.367
  424EMI    C04 8039   3.290   1.053   1.554
  424EMI    C03 8040   3.253   1.172   1.504
  424EMI    H07 8041   3.120   0.962   1.287
  424EMI    H09 8042   3.348   1.036   1.642
  424EMI    H08 8043   3.276   1.268   1.543
  424EMI    C05 8044   3.115   1.241   1.294
  424EMI    H0B 8045   3.027   1.200   1.249
  424EMI    H0C 8046   3.088   1.328   1.350
  424EMI    H0D 8047   3.184   1.268   1.217
  424EMI    N00 8048   3.176   1.142   1.383
  424EMI    C06 8049   3.250   0.806   1.479
  424EMI    H0F 8050   3.338   0.774   1.428
  424EMI    C0N 8051   3.261   0.771   1.629
  424EMI    H0O 8052   3.272   0.666   1.640
  424EMI    H0P 8053   3.347   0.821   1.670
  424EMI    H0Q 8054   3.173   0.804   1.680
  424EMI    N02 8055   3.235   0.952   1.464
  424EMI    H0E 8056   3.164   0.757   1.438
  425EMI    C01 8057   1.885   0.314   3.070
  425EMI    C04 8058   2.086   0.275   3.164
  425EMI    C03 8059   2.065   0.178   3.074
  425EMI    H07 8060   1.790   0.357   3.045
  425EMI    H09 8061   2.172   0.286   3.227
  425EMI    H08 8062   2.130   0.096   3.051
  425EMI    C05 8063   1.869   0.126   2.910
  425EMI    H0B 8064   1.807   0.189   2.850
  425EMI    H0C 8065   1.943   0.080   2.849
  425EMI    H0D 8066   1.808   0.050   2.956
  425EMI    N00 8067   1.934   0.206   3.015
  425EMI    C06 8068   1.946   0.482   3.241
  425EMI    H0F 8069   1.897   0.454   3.332
  425EMI    C0N 8070   2.082   0.546   3.274
  425EMI    H0O 8071   2.067   0.634   3.333
  425EMI    H0P 8072   2.143   0.477   3.328
  425EMI    H0Q 8073   2.132   0.573   3.183
  425EMI    N02 8074   1.968   0.361   3.159
  425EMI    H0E 8075   1.886   0.551   3.186
  426EMI    C01 8076   1.325   1.758   5.819
  426EMI    C04 8077   1.495   1.705   5.957
  426EMI    C03 8078   1.423   1.594   5.938
  426EMI    H07 8079   1.258   1.812   5.756
  426EMI    H09 8080   1.584   1.716   6.017
  426EMI    H08 8081   1.442   1.497   5.980
  426EMI    C05 8082   1.208   1.541   5.801
  426EMI    H0B 8083   1.175   1.573   5.704
  426EMI    H0C 8084   1.247   1.441   5.794
  426EMI    H0D 8085   1.126   1.542   5.869
  426EMI    N00 8086   1.314   1.631   5.849
  426EMI    C06 8087   1.473   1.950   5.869
  426EMI    H0F 8088   1.427   2.007   5.946
  426EMI    C0N 8089   1.626   1.957   5.884
  426EMI    H0O 8090   1.658   2.059   5.877
  426EMI    H0P 8091   1.654   1.917   5.979
  426EMI    H0Q 8092   1.672   1.899   5.806
  426EMI    N02 8093   1.429   1.810   5.879
  426EMI    H0E 8094   1.445   1.989   5.773
  427EMI    C01 8095   2.102   5.063   1.094
  427EMI    C04 8096   2.280   5.080   0.956
  427EMI    C03 8097   2.180   5.149   0.900
  427EMI    H07 8098   2.038   5.037   1.176
  427EMI    H09 8099   2.378   5.066   0.917
  427EMI    H08 8100   2.183   5.203   0.808
  427EMI    C05 8101   1.933   5.197   0.972
  427EMI    H0B 8102   1.889   5.218   1.067
  427EMI    H0C 8103   1.943   5.288   0.916
  427EMI    H0D 8104   1.871   5.129   0.918
  427EMI    N00 8105   2.066   5.137   0.992
  427EMI    C06 8106   2.300   4.941   1.176
  427EMI    H0F 8107   2.288   4.838   1.150
  427EMI    C0N 8108   2.450   4.977   1.171
  427EMI    H0O 8109   2.503   4.916   1.240
  427EMI    H0P 8110   2.487   4.961   1.072
  427EMI    H0Q 8111   2.462   5.080   1.197
  427EMI    N02 8112   2.226   5.025   1.081
  427EMI    H0E 8113   2.263   4.957   1.275
  428EMI    C01 8114   6.385   3.814   4.199
  428EMI    C04 8115   6.441   3.757   3.988
  428EMI    C03 8116   6.321   3.815   3.982
  428EMI    H07 8117   6.387   3.828   4.305
  428EMI    H09 8118   6.498   3.718   3.906
  428EMI    H08 8119   6.261   3.831   3.895
  428EMI    C05 8120   6.162   3.916   4.163
  428EMI    H0B 8121   6.182   3.975   4.250
  428EMI    H0C 8122   6.126   3.979   4.085
  428EMI    H0D 8123   6.089   3.842   4.187
  428EMI    N00 8124   6.287   3.850   4.120
  428EMI    C06 8125   6.606   3.705   4.183
  428EMI    H0F 8126   6.594   3.602   4.209
  428EMI    C0N 8127   6.717   3.718   4.077
  428EMI    H0O 8128   6.809   3.680   4.117
  428EMI    H0P 8129   6.690   3.663   3.990
  428EMI    H0Q 8130   6.730   3.821   4.052
  428EMI    N02 8131   6.480   3.758   4.129
  428EMI    H0E 8132   6.633   3.761   4.271
  429EMI    C01 8133   2.953   1.004   3.114
  429EMI    C04 8134   2.749   1.099   3.095
  429EMI    C03 8135   2.736   0.994   3.177
  429EMI    H07 8136   3.057   0.983   3.103
  429EMI    H09 8137   2.671   1.166   3.065
  429EMI    H08 8138   2.647   0.960   3.225
  429EMI    C05 8139   2.905   0.816   3.266
  429EMI    H0B 8140   3.006   0.823   3.299
  429EMI    H0C 8141   2.840   0.809   3.351
  429EMI    H0D 8142   2.893   0.728   3.206
  429EMI    N00 8143   2.870   0.934   3.187
  429EMI    C06 8144   2.951   1.203   2.967
  429EMI    H0F 8145   2.945   1.168   2.866
  429EMI    C0N 8146   2.875   1.336   2.979
  429EMI    H0O 8147   2.919   1.409   2.914
  429EMI    H0P 8148   2.772   1.322   2.952
  429EMI    H0Q 8149   2.880   1.371   3.080
  429EMI    N02 8150   2.890   1.103   3.056
  429EMI    H0E 8151   3.053   1.217   2.994
  430EMI    C01 8152   1.044   6.586   3.391
  430EMI    C04 8153   0.955   6.394   3.467
  430EMI    C03 8154   0.863   6.452   3.388
  430EMI    H07 8155   1.112   6.668   3.373
  430EMI    H09 8156   0.945   6.301   3.519
  430EMI    H08 8157   0.765   6.415   3.365
  430EMI    C05 8158   0.861   6.674   3.252
  430EMI    H0B 8159   0.936   6.723   3.193
  430EMI    H0C 8160   0.792   6.624   3.187
  430EMI    H0D 8161   0.808   6.747   3.310
  430EMI    N00 8162   0.924   6.577   3.341
  430EMI    C06 8163   1.196   6.460   3.540
  430EMI    H0F 8164   1.189   6.503   3.637
  430EMI    C0N 8165   1.221   6.308   3.552
  430EMI    H0O 8166   1.313   6.292   3.605
  430EMI    H0P 8167   1.140   6.263   3.606
  430EMI    H0Q 8168   1.228   6.265   3.454
  430EMI    N02 8169   1.071   6.483   3.467
  430EMI    H0E 8170   1.277   6.505   3.486
  431EMI    C01 8171   6.266   7.585   4.808
  431EMI    C04 8172   6.055   7.525   4.862
  431EMI    C03 8173   6.130   7.508   4.971
  431EMI    H07 8174   6.352   7.619   4.754
  431EMI    H09 8175   5.950   7.507   4.852
  431EMI    H08 8176   6.098   7.472   5.066
  431EMI    C05 8177   6.384   7.544   5.022
  431EMI    H0B 8178   6.452   7.621   4.992
  431EMI    H0C 8179   6.353   7.561   5.123
  431EMI    H0D 8180   6.432   7.449   5.014
  431EMI    N00 8181   6.266   7.547   4.933
  431EMI    C06 8182   6.107   7.609   4.620
  431EMI    H0F 8183   6.117   7.523   4.558
  431EMI    C0N 8184   5.961   7.657   4.618
  431EMI    H0O 8185   5.933   7.682   4.518
  431EMI    H0P 8186   5.897   7.580   4.654
  431EMI    H0Q 8187   5.951   7.744   4.680
  431EMI    N02 8188   6.146   7.575   4.758
  431EMI    H0E 8189   6.171   7.687   4.584
  432EMI    C01 8190   3.398   4.992   1.761
  432EMI    C04 8191   3.455   4.832   1.909
  432EMI    C03 8192   3.519   4.944   1.945
  432EMI    H07 8193   3.354   5.045   1.679
  432EMI    H09 8194   3.459   4.737   1.958
  432EMI    H08 8195   3.586   4.956   2.028
  432EMI    C05 8196   3.527   5.185   1.847
  432EMI    H0B 8197   3.451   5.248   1.805
  432EMI    H0C 8198   3.547   5.217   1.947
  432EMI    H0D 8199   3.616   5.193   1.788
  432EMI    N00 8200   3.481   5.046   1.848
  432EMI    C06 8201   3.290   4.775   1.715
  432EMI    H0F 8202   3.347   4.726   1.639
  432EMI    C0N 8203   3.233   4.669   1.811
  432EMI    H0O 8204   3.169   4.602   1.756
  432EMI    H0P 8205   3.313   4.614   1.855
  432EMI    H0Q 8206   3.176   4.718   1.887
  432EMI    N02 8207   3.377   4.867   1.790
  432EMI    H0E 8208   3.210   4.830   1.670
  433EMI    C01 8209   2.062   5.561   7.128
  433EMI    C04 8210   2.058   5.783   7.173
  433EMI    C03 8211   1.932   5.738   7.182
  433EMI    H07 8212   2.095   5.463   7.103
  433EMI    H09 8213   2.092   5.883   7.189
  433EMI    H08 8214   1.845   5.795   7.206
  433EMI    C05 8215   1.823   5.503   7.150
  433EMI    H0B 8216   1.855   5.405   7.177
  433EMI    H0C 8217   1.748   5.537   7.219
  433EMI    H0D 8218   1.781   5.501   7.051
  433EMI    N00 8219   1.938   5.595   7.152
  433EMI    C06 8220   2.285   5.667   7.118
  433EMI    H0F 8221   2.307   5.687   7.015
  433EMI    C0N 8222   2.349   5.776   7.206
  433EMI    H0O 8223   2.455   5.777   7.191
  433EMI    H0P 8224   2.308   5.872   7.179
  433EMI    H0Q 8225   2.327   5.756   7.309
  433EMI    N02 8226   2.139   5.666   7.138
  433EMI    H0E 8227   2.325   5.572   7.145
  434EMI    C01 8228   2.211   4.980   1.893
  434EMI    C04 8229   2.391   4.978   2.028
  434EMI    C03 8230   2.292   5.037   2.095
  434EMI    H07 8231   2.146   4.966   1.809
  434EMI    H09 8232   2.491   4.960   2.062
  434EMI    H08 8233   2.297   5.077   2.195
  434EMI    C05 8234   2.044   5.093   2.036
  434EMI    H0B 8235   1.969   5.038   1.983
  434EMI    H0C 8236   2.026   5.085   2.141
  434EMI    H0D 8237   2.041   5.195   2.007
  434EMI    N00 8238   2.177   5.037   2.005
  434EMI    C06 8239   2.408   4.874   1.789
  434EMI    H0F 8240   2.455   4.947   1.726
  434EMI    C0N 8241   2.516   4.782   1.849
  434EMI    H0O 8242   2.569   4.733   1.770
  434EMI    H0P 8243   2.585   4.841   1.907
  434EMI    H0Q 8244   2.470   4.709   1.912
  434EMI    N02 8245   2.336   4.942   1.897
  434EMI    H0E 8246   2.340   4.815   1.731
  435EMI    C01 8247   4.164   1.996   4.414
  435EMI    C04 8248   4.343   2.050   4.541
  435EMI    C03 8249   4.371   2.086   4.415
  435EMI    H07 8250   4.068   1.960   4.382
  435EMI    H09 8251   4.405   2.061   4.627
  435EMI    H08 8252   4.461   2.131   4.380
  435EMI    C05 8253   4.239   2.070   4.190
  435EMI    H0B 8254   4.136   2.085   4.167
  435EMI    H0C 8255   4.296   2.156   4.160
  435EMI    H0D 8256   4.275   1.984   4.138
  435EMI    N00 8257   4.254   2.049   4.335
  435EMI    C06 8258   4.134   1.939   4.652
  435EMI    H0F 8259   4.156   1.835   4.664
  435EMI    C0N 8260   4.177   2.014   4.780
  435EMI    H0O 8261   4.124   1.975   4.864
  435EMI    H0P 8262   4.283   2.001   4.795
  435EMI    H0Q 8263   4.156   2.118   4.769
  435EMI    N02 8264   4.208   1.992   4.537
  435EMI    H0E 8265   4.030   1.952   4.637
  436EMI    C01 8266   3.710   4.452   2.126
  436EMI    C04 8267   3.700   4.522   2.341
  436EMI    C03 8268   3.574   4.509   2.298
  436EMI    H07 8269   3.746   4.421   2.031
  436EMI    H09 8270   3.732   4.553   2.438
  436EMI    H08 8271   3.485   4.528   2.353
  436EMI    C05 8272   3.470   4.436   2.070
  436EMI    H0B 8273   3.497   4.360   2.000
  436EMI    H0C 8274   3.387   4.403   2.128
  436EMI    H0D 8275   3.443   4.525   2.017
  436EMI    N00 8276   3.584   4.464   2.159
  436EMI    C06 8277   3.933   4.483   2.229
  436EMI    H0F 8278   3.969   4.579   2.198
  436EMI    C0N 8279   3.983   4.453   2.371
  436EMI    H0O 8280   4.090   4.452   2.372
  436EMI    H0P 8281   3.948   4.528   2.438
  436EMI    H0Q 8282   3.947   4.357   2.402
  436EMI    N02 8283   3.786   4.485   2.228
  436EMI    H0E 8284   3.968   4.408   2.161
  437EMI    C01 8285   1.566   5.630   3.048
  437EMI    C04 8286   1.434   5.633   2.866
  437EMI    C03 8287   1.379   5.547   2.952
  437EMI    H07 8288   1.645   5.649   3.118
  437EMI    H09 8289   1.397   5.659   2.769
  437EMI    H08 8290   1.290   5.490   2.938
  437EMI    C05 8291   1.447   5.466   3.191
  437EMI    H0B 8292   1.488   5.518   3.275
  437EMI    H0C 8293   1.343   5.450   3.206
  437EMI    H0D 8294   1.497   5.372   3.179
  437EMI    N00 8295   1.467   5.546   3.069
  437EMI    C06 8296   1.647   5.784   2.873
  437EMI    H0F 8297   1.724   5.733   2.819
  437EMI    C0N 8298   1.570   5.878   2.779
  437EMI    H0O 8299   1.637   5.949   2.737
  437EMI    H0P 8300   1.526   5.820   2.700
  437EMI    H0Q 8301   1.493   5.928   2.833
  437EMI    N02 8302   1.554   5.685   2.931
  437EMI    H0E 8303   1.691   5.841   2.952
  438EMI    C01 8304   4.758   5.685   3.271
  438EMI    C04 8305   4.628   5.777   3.429
  438EMI    C03 8306   4.556   5.681   3.371
  438EMI    H07 8307   4.841   5.662   3.207
  438EMI    H09 8308   4.596   5.842   3.509
  438EMI    H08 8309   4.456   5.652   3.394
  438EMI    C05 8310   4.607   5.513   3.178
  438EMI    H0B 8311   4.695   5.457   3.153
  438EMI    H0C 8312   4.537   5.448   3.226
  438EMI    H0D 8313   4.564   5.552   3.089
  438EMI    N00 8314   4.643   5.623   3.268
  438EMI    C06 8315   4.870   5.867   3.394
  438EMI    H0F 8316   4.863   5.956   3.334
  438EMI    C0N 8317   4.865   5.906   3.543
  438EMI    H0O 8318   4.947   5.971   3.566
  438EMI    H0P 8319   4.773   5.955   3.564
  438EMI    H0Q 8320   4.872   5.817   3.603
  438EMI    N02 8321   4.758   5.778   3.363
  438EMI    H0E 8322   4.963   5.818   3.373
  439EMI    C01 8323   2.653   5.980   1.000
  439EMI    C04 8324   2.661   5.762   1.056
  439EMI    C03 8325   2.784   5.797   1.016
  439EMI    H07 8326   2.618   6.080   0.983
  439EMI    H09 8327   2.630   5.665   1.089
  439EMI    H08 8328   2.871   5.735   1.011
  439EMI    C05 8329   2.886   6.022   0.931
  439EMI    H0B 8330   2.871   6.124   0.962
  439EMI    H0C 8331   2.978   5.986   0.972
  439EMI    H0D 8332   2.890   6.017   0.824
  439EMI    N00 8333   2.775   5.939   0.981
  439EMI    C06 8334   2.436   5.891   1.078
  439EMI    H0F 8335   2.377   5.868   0.991
  439EMI    C0N 8336   2.402   5.791   1.190
  439EMI    H0O 8337   2.298   5.797   1.214
  439EMI    H0P 8338   2.425   5.691   1.156
  439EMI    H0Q 8339   2.461   5.813   1.276
  439EMI    N02 8340   2.579   5.882   1.045
  439EMI    H0E 8341   2.413   5.990   1.111
  440EMI    C01 8342   1.621   3.176   3.906
  440EMI    C04 8343   1.845   3.149   3.898
  440EMI    C03 8344   1.804   3.098   4.015
  440EMI    H07 8345   1.520   3.202   3.882
  440EMI    H09 8346   1.946   3.153   3.862
  440EMI    H08 8347   1.864   3.053   4.091
  440EMI    C05 8348   1.569   3.077   4.127
  440EMI    H0B 8349   1.472   3.053   4.087
  440EMI    H0C 8350   1.609   2.991   4.176
  440EMI    H0D 8351   1.560   3.157   4.197
  440EMI    N00 8352   1.658   3.117   4.017
  440EMI    C06 8353   1.722   3.263   3.698
  440EMI    H0F 8354   1.733   3.368   3.709
  440EMI    C0N 8355   1.836   3.208   3.611
  440EMI    H0O 8356   1.834   3.254   3.515
  440EMI    H0P 8357   1.930   3.228   3.659
  440EMI    H0Q 8358   1.825   3.102   3.600
  440EMI    N02 8359   1.725   3.198   3.830
  440EMI    H0E 8360   1.628   3.242   3.651
  441EMI    C01 8361   2.358   2.548   0.336
  441EMI    C04 8362   2.421   2.746   0.247
  441EMI    C03 8363   2.349   2.773   0.357
  441EMI    H07 8364   2.345   2.444   0.353
  441EMI    H09 8365   2.467   2.817   0.181
  441EMI    H08 8366   2.324   2.870   0.396
  441EMI    C05 8367   2.228   2.623   0.533
  441EMI    H0B 8368   2.256   2.530   0.579
  441EMI    H0C 8369   2.244   2.703   0.601
  441EMI    H0D 8370   2.124   2.619   0.506
  441EMI    N00 8371   2.309   2.643   0.412
  441EMI    C06 8372   2.494   2.524   0.131
  441EMI    H0F 8373   2.427   2.508   0.050
  441EMI    C0N 8374   2.616   2.604   0.082
  441EMI    H0O 8375   2.666   2.549   0.005
  441EMI    H0P 8376   2.584   2.698   0.042
  441EMI    H0Q 8377   2.683   2.621   0.163
  441EMI    N02 8378   2.425   2.600   0.237
  441EMI    H0E 8379   2.527   2.430   0.170
  442EMI    C01 8380   4.619   1.336   5.418
  442EMI    C04 8381   4.831   1.264   5.447
  442EMI    C03 8382   4.832   1.397   5.463
  442EMI    H07 8383   4.514   1.339   5.400
  442EMI    H09 8384   4.915   1.198   5.453
  442EMI    H08 8385   4.917   1.459   5.485
  442EMI    C05 8386   4.646   1.580   5.452
  442EMI    H0B 8387   4.544   1.581   5.486
  442EMI    H0C 8388   4.707   1.634   5.521
  442EMI    H0D 8389   4.652   1.625   5.355
  442EMI    N00 8390   4.693   1.441   5.444
  442EMI    C06 8391   4.643   1.092   5.393
  442EMI    H0F 8392   4.648   1.071   5.288
  442EMI    C0N 8393   4.729   0.990   5.470
  442EMI    H0O 8394   4.693   0.891   5.451
  442EMI    H0P 8395   4.831   0.998   5.437
  442EMI    H0Q 8396   4.724   1.012   5.575
  442EMI    N02 8397   4.692   1.228   5.418
  442EMI    H0E 8398   4.541   1.084   5.425
  443EMI    C01 8399   0.448   1.257   6.772
  443EMI    C04 8400   0.325   1.236   6.584
  443EMI    C03 8401   0.454   1.225   6.549
  443EMI    H07 8402   0.477   1.270   6.874
  443EMI    H09 8403   0.240   1.230   6.519
  443EMI    H08 8404   0.493   1.209   6.450
  443EMI    C05 8405   0.677   1.234   6.683
  443EMI    H0B 8406   0.705   1.196   6.779
  443EMI    H0C 8407   0.717   1.171   6.607
  443EMI    H0D 8408   0.717   1.333   6.672
  443EMI    N00 8409   0.531   1.239   6.673
  443EMI    C06 8410   0.205   1.274   6.812
  443EMI    H0F 8411   0.180   1.377   6.819
  443EMI    C0N 8412   0.087   1.196   6.750
  443EMI    H0O 8413  -0.000   1.209   6.811
  443EMI    H0P 8414   0.068   1.234   6.652
  443EMI    H0Q 8415   0.112   1.093   6.744
  443EMI    N02 8416   0.325   1.256   6.729
  443EMI    H0E 8417   0.224   1.236   6.911
  444EMI    C01 8418   5.617   2.978   4.953
  444EMI    C04 8419   5.497   2.789   4.987
  444EMI    C03 8420   5.622   2.766   5.030
  444EMI    H07 8421   5.645   3.077   4.926
  444EMI    H09 8422   5.415   2.721   4.989
  444EMI    H08 8423   5.659   2.675   5.073
  444EMI    C05 8424   5.839   2.910   5.038
  444EMI    H0B 8425   5.855   3.014   5.061
  444EMI    H0C 8426   5.866   2.850   5.122
  444EMI    H0D 8427   5.899   2.883   4.954
  444EMI    N00 8428   5.697   2.889   5.007
  444EMI    C06 8429   5.381   2.998   4.881
  444EMI    H0F 8430   5.378   2.982   4.776
  444EMI    C0N 8431   5.252   2.943   4.945
  444EMI    H0O 8432   5.167   2.994   4.903
  444EMI    H0P 8433   5.244   2.838   4.925
  444EMI    H0Q 8434   5.255   2.959   5.051
  444EMI    N02 8435   5.497   2.927   4.938
  444EMI    H0E 8436   5.389   3.102   4.902
  445EMI    C01 8437   1.339   2.262   4.549
  445EMI    C04 8438   1.348   2.355   4.343
  445EMI    C03 8439   1.460   2.390   4.407
  445EMI    H07 8440   1.307   2.208   4.635
  445EMI    H09 8441   1.320   2.382   4.243
  445EMI    H08 8442   1.540   2.450   4.369
  445EMI    C05 8443   1.553   2.339   4.645
  445EMI    H0B 8444   1.552   2.251   4.706
  445EMI    H0C 8445   1.650   2.350   4.601
  445EMI    H0D 8446   1.532   2.425   4.706
  445EMI    N00 8447   1.452   2.328   4.540
  445EMI    C06 8448   1.141   2.211   4.411
  445EMI    H0F 8449   1.063   2.279   4.440
  445EMI    C0N 8450   1.128   2.180   4.260
  445EMI    H0O 8451   1.032   2.135   4.241
  445EMI    H0P 8452   1.137   2.271   4.204
  445EMI    H0Q 8453   1.205   2.112   4.232
  445EMI    N02 8454   1.272   2.272   4.437
  445EMI    H0E 8455   1.131   2.121   4.467
  446EMI    C01 8456   3.816   5.451   4.477
  446EMI    C04 8457   3.698   5.560   4.319
  446EMI    C03 8458   3.612   5.524   4.415
  446EMI    H07 8459   3.896   5.406   4.532
  446EMI    H09 8460   3.676   5.614   4.229
  446EMI    H08 8461   3.507   5.543   4.417
  446EMI    C05 8462   3.639   5.396   4.640
  446EMI    H0B 8463   3.715   5.398   4.716
  446EMI    H0C 8464   3.554   5.452   4.673
  446EMI    H0D 8465   3.610   5.294   4.623
  446EMI    N00 8466   3.691   5.454   4.516
  446EMI    C06 8467   3.955   5.528   4.288
  446EMI    H0F 8468   3.969   5.445   4.222
  446EMI    C0N 8469   3.950   5.658   4.206
  446EMI    H0O 8470   4.042   5.670   4.152
  446EMI    H0P 8471   3.868   5.653   4.136
  446EMI    H0Q 8472   3.936   5.742   4.271
  446EMI    N02 8473   3.830   5.512   4.362
  446EMI    H0E 8474   4.037   5.533   4.357
  447EMI    C01 8475   6.807   7.092   5.296
  447EMI    C04 8476   6.900   6.989   5.118
  447EMI    C03 8477   6.816   6.901   5.176
  447EMI    H07 8478   6.782   7.165   5.370
  447EMI    H09 8479   6.960   6.972   5.031
  447EMI    H08 8480   6.796   6.801   5.144
  447EMI    C05 8481   6.660   6.914   5.385
  447EMI    H0B 8482   6.598   6.992   5.423
  447EMI    H0C 8483   6.600   6.842   5.334
  447EMI    H0D 8484   6.712   6.867   5.466
  447EMI    N00 8485   6.758   6.971   5.291
  447EMI    C06 8486   6.966   7.235   5.172
  447EMI    H0F 8487   7.060   7.232   5.224
  447EMI    C0N 8488   6.992   7.249   5.021
  447EMI    H0O 8489   7.047   7.339   5.002
  447EMI    H0P 8490   7.050   7.165   4.987
  447EMI    H0Q 8491   6.899   7.252   4.969
  447EMI    N02 8492   6.892   7.111   5.198
  447EMI    H0E 8493   6.909   7.319   5.207
  448EMI    C01 8494   6.130   0.790   6.168
  448EMI    C04 8495   5.945   0.907   6.223
  448EMI    C03 8496   6.037   0.931   6.318
  448EMI    H07 8497   6.199   0.726   6.117
  448EMI    H09 8498   5.846   0.947   6.219
  448EMI    H08 8499   6.026   0.994   6.404
  448EMI    C05 8500   6.282   0.849   6.354
  448EMI    H0B 8501   6.363   0.833   6.285
  448EMI    H0C 8502   6.297   0.942   6.405
  448EMI    H0D 8503   6.279   0.769   6.425
  448EMI    N00 8504   6.156   0.854   6.279
  448EMI    C06 8505   5.945   0.761   6.007
  448EMI    H0F 8506   5.896   0.669   6.030
  448EMI    C0N 8507   5.842   0.862   5.953
  448EMI    H0O 8508   5.796   0.823   5.865
  448EMI    H0P 8509   5.768   0.880   6.027
  448EMI    H0Q 8510   5.892   0.954   5.929
  448EMI    N02 8511   6.008   0.815   6.128
  448EMI    H0E 8512   6.020   0.744   5.932
  449EMI    C01 8513   5.246   6.819   4.969
  449EMI    C04 8514   5.161   6.611   4.987
  449EMI    C03 8515   5.231   6.635   5.098
  449EMI    H07 8516   5.271   6.917   4.932
  449EMI    H09 8517   5.107   6.522   4.963
  449EMI    H08 8518   5.245   6.569   5.181
  449EMI    C05 8519   5.370   6.840   5.182
  449EMI    H0B 8520   5.353   6.946   5.175
  449EMI    H0C 8521   5.346   6.806   5.280
  449EMI    H0D 8522   5.473   6.819   5.161
  449EMI    N00 8523   5.285   6.771   5.084
  449EMI    C06 8524   5.111   6.753   4.773
  449EMI    H0F 8525   5.178   6.719   4.697
  449EMI    C0N 8526   4.980   6.671   4.765
  449EMI    H0O 8527   4.935   6.686   4.669
  449EMI    H0P 8528   5.001   6.567   4.779
  449EMI    H0Q 8529   4.912   6.705   4.841
  449EMI    N02 8530   5.172   6.732   4.905
  449EMI    H0E 8531   5.089   6.856   4.760
  450EMI    C01 8532   3.313   7.078   5.069
  450EMI    C04 8533   3.190   6.890   5.088
  450EMI    C03 8534   3.314   6.860   5.128
  450EMI    H07 8535   3.344   7.179   5.049
  450EMI    H09 8536   3.106   6.824   5.084
  450EMI    H08 8537   3.350   6.766   5.163
  450EMI    C05 8538   3.534   7.000   5.147
  450EMI    H0B 8539   3.553   7.100   5.179
  450EMI    H0C 8540   3.560   6.932   5.226
  450EMI    H0D 8541   3.593   6.978   5.061
  450EMI    N00 8542   3.392   6.984   5.115
  450EMI    C06 8543   3.078   7.108   4.999
  450EMI    H0F 8544   3.075   7.101   4.893
  450EMI    C0N 8545   2.948   7.052   5.058
  450EMI    H0O 8546   2.865   7.108   5.022
  450EMI    H0P 8547   2.937   6.949   5.030
  450EMI    H0Q 8548   2.951   7.059   5.165
  450EMI    N02 8549   3.193   7.031   5.050
  450EMI    H0E 8550   3.089   7.211   5.028
  451EMI    C01 8551   6.439   3.989   3.346
  451EMI    C04 8552   6.645   4.076   3.316
  451EMI    C03 8553   6.660   3.944   3.337
  451EMI    H07 8554   6.333   3.978   3.356
  451EMI    H09 8555   6.722   4.147   3.298
  451EMI    H08 8556   6.752   3.890   3.339
  451EMI    C05 8557   6.491   3.750   3.382
  451EMI    H0B 8558   6.394   3.728   3.342
  451EMI    H0C 8559   6.564   3.687   3.336
  451EMI    H0D 8560   6.491   3.732   3.488
  451EMI    N00 8561   6.525   3.891   3.356
  451EMI    C06 8562   6.436   4.233   3.306
  451EMI    H0F 8563   6.429   4.281   3.401
  451EMI    C0N 8564   6.521   4.320   3.211
  451EMI    H0O 8565   6.475   4.415   3.199
  451EMI    H0P 8566   6.619   4.333   3.253
  451EMI    H0Q 8567   6.529   4.271   3.116
  451EMI    N02 8568   6.501   4.102   3.323
  451EMI    H0E 8569   6.339   4.220   3.264
  452EMI    C01 8570   6.176   3.998   1.618
  452EMI    C04 8571   6.209   3.842   1.777
  452EMI    C03 8572   6.134   3.785   1.682
  452EMI    H07 8573   6.178   4.090   1.563
  452EMI    H09 8574   6.243   3.796   1.868
  452EMI    H08 8575   6.097   3.685   1.680
  452EMI    C05 8576   6.039   3.873   1.455
  452EMI    H0B 8577   6.080   3.937   1.380
  452EMI    H0C 8578   6.044   3.771   1.423
  452EMI    H0D 8579   5.936   3.900   1.472
  452EMI    N00 8580   6.115   3.889   1.580
  452EMI    C06 8581   6.312   4.080   1.808
  452EMI    H0F 8582   6.247   4.134   1.873
  452EMI    C0N 8583   6.421   4.009   1.891
  452EMI    H0O 8584   6.478   4.082   1.945
  452EMI    H0P 8585   6.374   3.942   1.960
  452EMI    H0Q 8586   6.486   3.954   1.826
  452EMI    N02 8587   6.234   3.979   1.734
  452EMI    H0E 8588   6.358   4.147   1.738
  453EMI    C01 8589   2.019   6.357   6.766
  453EMI    C04 8590   1.834   6.486   6.785
  453EMI    C03 8591   1.938   6.568   6.768
  453EMI    H07 8592   2.084   6.273   6.761
  453EMI    H09 8593   1.732   6.514   6.798
  453EMI    H08 8594   1.936   6.675   6.763
  453EMI    C05 8595   2.194   6.529   6.734
  453EMI    H0B 8596   2.249   6.455   6.679
  453EMI    H0C 8597   2.193   6.620   6.679
  453EMI    H0D 8598   2.241   6.544   6.829
  453EMI    N00 8599   2.056   6.482   6.755
  453EMI    C06 8600   1.812   6.226   6.800
  453EMI    H0F 8601   1.807   6.201   6.904
  453EMI    C0N 8602   1.670   6.247   6.745
  453EMI    H0O 8603   1.613   6.157   6.757
  453EMI    H0P 8604   1.622   6.326   6.799
  453EMI    H0Q 8605   1.675   6.273   6.642
  453EMI    N02 8606   1.889   6.350   6.784
  453EMI    H0E 8607   1.860   6.147   6.746
  454EMI    C01 8608   7.681   7.211   1.754
  454EMI    C04 8609   7.771   7.366   1.892
  454EMI    C03 8610   7.869   7.321   1.814
  454EMI    H07 8611   7.613   7.146   1.705
  454EMI    H09 8612   7.778   7.441   1.969
  454EMI    H08 8613   7.972   7.352   1.816
  454EMI    C05 8614   7.880   7.144   1.623
  454EMI    H0B 8615   7.812   7.120   1.543
  454EMI    H0C 8616   7.961   7.202   1.585
  454EMI    H0D 8617   7.917   7.053   1.666
  454EMI    N00 8618   7.809   7.221   1.726
  454EMI    C06 8619   7.516   7.311   1.909
  454EMI    H0F 8620   7.504   7.243   1.991
  454EMI    C0N 8621   7.500   7.455   1.959
  454EMI    H0O 8622   7.402   7.467   2.002
  454EMI    H0P 8623   7.574   7.475   2.034
  454EMI    H0Q 8624   7.512   7.523   1.877
  454EMI    N02 8625   7.650   7.294   1.851
  454EMI    H0E 8626   7.442   7.290   1.834
  455EMI    C01 8627   4.380   1.311   2.265
  455EMI    C04 8628   4.522   1.213   2.410
  455EMI    C03 8629   4.438   1.287   2.482
  455EMI    H07 8630   4.330   1.342   2.176
  455EMI    H09 8631   4.603   1.153   2.446
  455EMI    H08 8632   4.437   1.298   2.588
  455EMI    C05 8633   4.236   1.440   2.420
  455EMI    H0B 8634   4.158   1.430   2.347
  455EMI    H0C 8635   4.198   1.416   2.517
  455EMI    H0D 8636   4.272   1.541   2.420
  455EMI    N00 8637   4.347   1.349   2.386
  455EMI    C06 8638   4.547   1.168   2.154
  455EMI    H0F 8639   4.625   1.231   2.118
  455EMI    C0N 8640   4.606   1.032   2.195
  455EMI    H0O 8641   4.653   0.986   2.110
  455EMI    H0P 8642   4.679   1.047   2.272
  455EMI    H0Q 8643   4.528   0.968   2.231
  455EMI    N02 8644   4.482   1.230   2.270
  455EMI    H0E 8645   4.474   1.153   2.076
  456EMI    C01 8646   3.064   1.421   3.896
  456EMI    C04 8647   2.864   1.519   3.858
  456EMI    C03 8648   2.957   1.594   3.798
  456EMI    H07 8649   3.140   1.354   3.930
  456EMI    H09 8650   2.758   1.536   3.861
  456EMI    H08 8651   2.940   1.684   3.742
  456EMI    C05 8652   3.216   1.575   3.777
  456EMI    H0B 8653   3.281   1.491   3.763
  456EMI    H0C 8654   3.204   1.627   3.685
  456EMI    H0D 8655   3.259   1.641   3.850
  456EMI    N00 8656   3.085   1.528   3.824
  456EMI    C06 8657   2.875   1.299   3.999
  456EMI    H0F 8658   2.871   1.327   4.102
  456EMI    C0N 8659   2.732   1.273   3.947
  456EMI    H0O 8660   2.688   1.194   4.004
  456EMI    H0P 8661   2.674   1.361   3.958
  456EMI    H0Q 8662   2.736   1.244   3.844
  456EMI    N02 8663   2.936   1.408   3.921
  456EMI    H0E 8664   2.934   1.210   3.988
  457EMI    C01 8665   7.529   1.476   4.436
  457EMI    C04 8666   7.393   1.656   4.446
  457EMI    C03 8667   7.316   1.547   4.457
  457EMI    H07 8668   7.616   1.413   4.428
  457EMI    H09 8669   7.361   1.758   4.447
  457EMI    H08 8670   7.210   1.545   4.468
  457EMI    C05 8671   7.367   1.291   4.457
  457EMI    H0B 8672   7.446   1.234   4.501
  457EMI    H0C 8673   7.278   1.282   4.518
  457EMI    H0D 8674   7.346   1.254   4.359
  457EMI    N00 8675   7.407   1.432   4.450
  457EMI    C06 8676   7.651   1.690   4.418
  457EMI    H0F 8677   7.669   1.708   4.314
  457EMI    C0N 8678   7.629   1.825   4.490
  457EMI    H0O 8679   7.716   1.886   4.479
  457EMI    H0P 8680   7.544   1.875   4.447
  457EMI    H0Q 8681   7.610   1.807   4.594
  457EMI    N02 8682   7.531   1.607   4.432
  457EMI    H0E 8683   7.735   1.640   4.461
  458EMI    C01 8684   2.255   3.755   0.098
  458EMI    C04 8685   2.464   3.699   0.034
  458EMI    C03 8686   2.457   3.833   0.034
  458EMI    H07 8687   2.153   3.750   0.130
  458EMI    H09 8688   2.549   3.639   0.009
  458EMI    H08 8689   2.535   3.901   0.009
  458EMI    C05 8690   2.267   4.002   0.091
  458EMI    H0B 8691   2.191   4.003   0.167
  458EMI    H0C 8692   2.345   4.069   0.118
  458EMI    H0D 8693   2.224   4.034  -0.002
  458EMI    N00 8694   2.321   3.866   0.076
  458EMI    C06 8695   2.292   3.511   0.091
  458EMI    H0F 8696   2.253   3.475  -0.002
  458EMI    C0N 8697   2.415   3.427   0.130
  458EMI    H0O 8698   2.386   3.324   0.141
  458EMI    H0P 8699   2.490   3.435   0.054
  458EMI    H0Q 8700   2.455   3.463   0.223
  458EMI    N02 8701   2.332   3.652   0.076
  458EMI    H0E 8702   2.218   3.503   0.167
  459EMI    C01 8703   3.690   1.652   5.466
  459EMI    C04 8704   3.800   1.688   5.660
  459EMI    C03 8705   3.718   1.792   5.641
  459EMI    H07 8706   3.656   1.609   5.374
  459EMI    H09 8707   3.866   1.673   5.742
  459EMI    H08 8708   3.706   1.877   5.705
  459EMI    C05 8709   3.548   1.854   5.453
  459EMI    H0B 8710   3.479   1.795   5.396
  459EMI    H0C 8711   3.496   1.908   5.529
  459EMI    H0D 8712   3.597   1.923   5.387
  459EMI    N00 8713   3.648   1.766   5.515
  459EMI    C06 8714   3.848   1.471   5.523
  459EMI    H0F 8715   3.938   1.488   5.468
  459EMI    C0N 8716   3.883   1.407   5.659
  459EMI    H0O 8717   3.933   1.314   5.643
  459EMI    H0P 8718   3.947   1.473   5.714
  459EMI    H0Q 8719   3.793   1.390   5.715
  459EMI    N02 8720   3.780   1.599   5.545
  459EMI    H0E 8721   3.784   1.405   5.468
  460EMI    C01 8722   4.654   4.053   6.824
  460EMI    C04 8723   4.844   4.109   6.933
  460EMI    C03 8724   4.867   4.123   6.802
  460EMI    H07 8725   4.554   4.022   6.803
  460EMI    H09 8726   4.912   4.128   7.013
  460EMI    H08 8727   4.958   4.155   6.756
  460EMI    C05 8728   4.721   4.086   6.589
  460EMI    H0B 8729   4.618   4.107   6.568
  460EMI    H0C 8730   4.783   4.162   6.543
  460EMI    H0D 8731   4.747   3.990   6.548
  460EMI    N00 8732   4.743   4.086   6.734
  460EMI    C06 8733   4.635   4.035   7.070
  460EMI    H0F 8734   4.649   3.932   7.096
  460EMI    C0N 8735   4.691   4.124   7.182
  460EMI    H0O 8736   4.640   4.103   7.274
  460EMI    H0P 8737   4.795   4.104   7.194
  460EMI    H0Q 8738   4.677   4.227   7.156
  460EMI    N02 8739   4.705   4.064   6.944
  460EMI    H0E 8740   4.530   4.054   7.058
  461EMI    C01 8741   3.966   0.979   6.785
  461EMI    C04 8742   3.917   0.768   6.720
  461EMI    C03 8743   3.881   0.779   6.848
  461EMI    H07 8744   3.999   1.080   6.785
  461EMI    H09 8745   3.907   0.682   6.658
  461EMI    H08 8746   3.837   0.704   6.909
  461EMI    C05 8747   3.892   0.975   7.021
  461EMI    H0B 8748   3.874   1.080   7.011
  461EMI    H0C 8749   3.807   0.929   7.067
  461EMI    H0D 8750   3.978   0.959   7.081
  461EMI    N00 8751   3.914   0.917   6.888
  461EMI    C06 8752   4.024   0.934   6.549
  461EMI    H0F 8753   4.129   0.912   6.545
  461EMI    C0N 8754   3.951   0.852   6.441
  461EMI    H0O 8755   3.989   0.877   6.345
  461EMI    H0P 8756   3.966   0.747   6.459
  461EMI    H0Q 8757   3.846   0.874   6.445
  461EMI    N02 8758   3.971   0.899   6.682
  461EMI    H0E 8759   4.009   1.038   6.531
  462EMI    C01 8760   3.861   0.252   5.991
  462EMI    C04 8761   3.903   0.216   6.210
  462EMI    C03 8762   3.992   0.144   6.140
  462EMI    H07 8763   3.819   0.288   5.899
  462EMI    H09 8764   3.895   0.223   6.316
  462EMI    H08 8765   4.068   0.080   6.179
  462EMI    C05 8766   4.034   0.110   5.885
  462EMI    H0B 8767   4.031   0.178   5.802
  462EMI    H0C 8768   4.135   0.091   5.912
  462EMI    H0D 8769   3.987   0.018   5.856
  462EMI    N00 8770   3.962   0.169   5.999
  462EMI    C06 8771   3.709   0.377   6.141
  462EMI    H0F 8772   3.618   0.321   6.147
  462EMI    C0N 8773   3.737   0.448   6.274
  462EMI    H0O 8774   3.656   0.515   6.296
  462EMI    H0P 8775   3.745   0.375   6.352
  462EMI    H0Q 8776   3.828   0.504   6.267
  462EMI    N02 8777   3.820   0.285   6.110
  462EMI    H0E 8778   3.701   0.450   6.062
  463EMI    C01 8779   4.280   1.037   5.012
  463EMI    C04 8780   4.318   1.155   4.823
  463EMI    C03 8781   4.187   1.163   4.850
  463EMI    H07 8782   4.295   0.976   5.099
  463EMI    H09 8783   4.369   1.200   4.741
  463EMI    H08 8784   4.112   1.215   4.793
  463EMI    C05 8785   4.037   1.066   5.040
  463EMI    H0B 8786   4.053   1.054   5.145
  463EMI    H0C 8787   3.974   1.151   5.023
  463EMI    H0D 8788   3.989   0.978   5.001
  463EMI    N00 8789   4.166   1.086   4.972
  463EMI    C06 8790   4.518   1.037   4.942
  463EMI    H0F 8791   4.536   0.946   4.890
  463EMI    C0N 8792   4.604   1.149   4.882
  463EMI    H0O 8793   4.708   1.123   4.891
  463EMI    H0P 8794   4.580   1.161   4.778
  463EMI    H0Q 8795   4.586   1.241   4.934
  463EMI    N02 8796   4.376   1.073   4.930
  463EMI    H0E 8797   4.542   1.025   5.046
  464EMI    C01 8798   2.861   7.687   2.759
  464EMI    C04 8799   2.688   7.619   2.886
  464EMI    C03 8800   2.747   7.509   2.838
  464EMI    H07 8801   2.932   7.747   2.707
  464EMI    H09 8802   2.602   7.623   2.950
  464EMI    H08 8803   2.718   7.407   2.855
  464EMI    C05 8804   2.953   7.470   2.682
  464EMI    H0B 8805   3.048   7.519   2.675
  464EMI    H0C 8806   2.964   7.377   2.733
  464EMI    H0D 8807   2.915   7.452   2.583
  464EMI    N00 8808   2.859   7.556   2.756
  464EMI    C06 8809   2.735   7.874   2.859
  464EMI    H0F 8810   2.668   7.911   2.785
  464EMI    C0N 8811   2.671   7.888   2.999
  464EMI    H0O 8812   2.651   7.992   3.018
  464EMI    H0P 8813   2.580   7.832   3.002
  464EMI    H0Q 8814   2.739   7.851   3.073
  464EMI    N02 8815   2.764   7.732   2.833
  464EMI    H0E 8816   2.826   7.930   2.856
  465EMI    C01 8817   2.358   4.461   0.428
  465EMI    C04 8818   2.141   4.431   0.483
  465EMI    C03 8819   2.214   4.372   0.577
  465EMI    H07 8820   2.447   4.491   0.377
  465EMI    H09 8821   2.034   4.437   0.478
  465EMI    H08 8822   2.178   4.319   0.663
  465EMI    C05 8823   2.471   4.344   0.614
  465EMI    H0B 8824   2.553   4.411   0.599
  465EMI    H0C 8825   2.447   4.339   0.718
  465EMI    H0D 8826   2.498   4.247   0.579
  465EMI    N00 8827   2.354   4.393   0.539
  465EMI    C06 8828   2.202   4.564   0.266
  465EMI    H0F 8829   2.192   4.497   0.184
  465EMI    C0N 8830   2.068   4.638   0.288
  465EMI    H0O 8831   2.043   4.693   0.200
  465EMI    H0P 8832   1.991   4.567   0.309
  465EMI    H0Q 8833   2.079   4.706   0.371
  465EMI    N02 8834   2.236   4.488   0.387
  465EMI    H0E 8835   2.279   4.635   0.245
  466EMI    C01 8836   0.547   3.103   1.901
  466EMI    C04 8837   0.343   3.102   1.999
  466EMI    C03 8838   0.430   3.148   2.089
  466EMI    H07 8839   0.626   3.092   1.831
  466EMI    H09 8840   0.238   3.089   2.011
  466EMI    H08 8841   0.409   3.178   2.190
  466EMI    C05 8842   0.688   3.189   2.085
  466EMI    H0B 8843   0.753   3.228   2.010
  466EMI    H0C 8844   0.669   3.265   2.158
  466EMI    H0D 8845   0.735   3.105   2.132
  466EMI    N00 8846   0.561   3.147   2.024
  466EMI    C06 8847   0.368   3.022   1.751
  466EMI    H0F 8848   0.371   2.915   1.753
  466EMI    C0N 8849   0.223   3.070   1.734
  466EMI    H0O 8850   0.184   3.032   1.642
  466EMI    H0P 8851   0.163   3.033   1.815
  466EMI    H0Q 8852   0.220   3.177   1.732
  466EMI    N02 8853   0.422   3.074   1.878
  466EMI    H0E 8854   0.427   3.058   1.670
  467EMI    C01 8855   4.722   2.696   2.915
  467EMI    C04 8856   4.860   2.872   2.951
  467EMI    C03 8857   4.734   2.917   2.962
  467EMI    H07 8858   4.685   2.598   2.894
  467EMI    H09 8859   4.950   2.928   2.963
  467EMI    H08 8860   4.704   3.017   2.983
  467EMI    C05 8861   4.501   2.803   2.938
  467EMI    H0B 8862   4.464   2.707   2.970
  467EMI    H0C 8863   4.466   2.878   3.006
  467EMI    H0D 8864   4.465   2.824   2.840
  467EMI    N00 8865   4.648   2.801   2.937
  467EMI    C06 8866   4.962   2.636   2.901
  467EMI    H0F 8867   4.989   2.635   2.798
  467EMI    C0N 8868   5.082   2.684   2.985
  467EMI    H0O 8869   5.164   2.617   2.970
  467EMI    H0P 8870   5.111   2.782   2.954
  467EMI    H0Q 8871   5.055   2.685   3.089
  467EMI    N02 8872   4.849   2.728   2.921
  467EMI    H0E 8873   4.934   2.538   2.932
  468EMI    C01 8874   2.148   5.650   0.483
  468EMI    C04 8875   1.924   5.623   0.470
  468EMI    C03 8876   1.956   5.628   0.600
  468EMI    H07 8877   2.251   5.662   0.457
  468EMI    H09 8878   1.826   5.611   0.428
  468EMI    H08 8879   1.889   5.621   0.683
  468EMI    C05 8880   2.182   5.656   0.728
  468EMI    H0B 8881   2.268   5.717   0.709
  468EMI    H0C 8882   2.123   5.701   0.805
  468EMI    H0D 8883   2.214   5.559   0.758
  468EMI    N00 8884   2.102   5.646   0.605
  468EMI    C06 8885   2.064   5.638   0.251
  468EMI    H0F 8886   2.080   5.538   0.216
  468EMI    C0N 8887   1.936   5.696   0.187
  468EMI    H0O 8888   1.947   5.696   0.080
  468EMI    H0P 8889   1.853   5.635   0.214
  468EMI    H0Q 8890   1.921   5.796   0.221
  468EMI    N02 8891   2.050   5.638   0.397
  468EMI    H0E 8892   2.148   5.699   0.223
  469EMI    C01 8893   5.597   3.732   2.828
  469EMI    C04 8894   5.705   3.908   2.919
  469EMI    C03 8895   5.594   3.887   2.992
  469EMI    H07 8896   5.571   3.650   2.764
  469EMI    H09 8897   5.779   3.983   2.935
  469EMI    H08 8898   5.562   3.942   3.077
  469EMI    C05 8899   5.400   3.713   2.976
  469EMI    H0B 8900   5.399   3.609   2.952
  469EMI    H0C 8901   5.391   3.726   3.082
  469EMI    H0D 8902   5.318   3.761   2.927
  469EMI    N00 8903   5.527   3.772   2.930
  469EMI    C06 8904   5.806   3.790   2.709
  469EMI    H0F 8905   5.780   3.849   2.624
  469EMI    C0N 8906   5.943   3.836   2.764
  469EMI    H0O 8907   6.017   3.825   2.688
  469EMI    H0P 8908   5.936   3.939   2.792
  469EMI    H0Q 8909   5.969   3.777   2.849
  469EMI    N02 8910   5.704   3.806   2.814
  469EMI    H0E 8911   5.812   3.687   2.681
  470EMI    C01 8912   7.249   4.550   3.928
  470EMI    C04 8913   7.089   4.486   4.074
  470EMI    C03 8914   7.135   4.375   4.014
  470EMI    H07 8915   7.317   4.609   3.870
  470EMI    H09 8916   7.013   4.491   4.149
  470EMI    H08 8917   7.102   4.275   4.031
  470EMI    C05 8918   7.316   4.333   3.831
  470EMI    H0B 8919   7.412   4.377   3.814
  470EMI    H0C 8920   7.328   4.237   3.876
  470EMI    H0D 8921   7.265   4.322   3.737
  470EMI    N00 8922   7.238   4.420   3.920
  470EMI    C06 8923   7.149   4.739   4.053
  470EMI    H0F 8924   7.075   4.784   3.990
  470EMI    C0N 8925   7.105   4.750   4.200
  470EMI    H0O 8926   7.093   4.853   4.226
  470EMI    H0P 8927   7.011   4.699   4.213
  470EMI    H0Q 8928   7.179   4.705   4.263
  470EMI    N02 8929   7.165   4.597   4.017
  470EMI    H0E 8930   7.242   4.789   4.040
  471EMI    C01 8931   5.071   7.659   3.853
  471EMI    C04 8932   5.040   7.466   3.967
  471EMI    C03 8933   5.032   7.437   3.837
  471EMI    H07 8934   5.088   7.761   3.829
  471EMI    H09 8935   5.030   7.398   4.049
  471EMI    H08 8936   5.014   7.341   3.793
  471EMI    C05 8937   5.052   7.580   3.619
  471EMI    H0B 8938   5.117   7.661   3.593
  471EMI    H0C 8939   5.087   7.490   3.573
  471EMI    H0D 8940   4.953   7.602   3.586
  471EMI    N00 8941   5.052   7.563   3.765
  471EMI    C06 8942   5.081   7.688   4.098
  471EMI    H0F 8943   4.985   7.724   4.130
  471EMI    C0N 8944   5.141   7.598   4.208
  471EMI    H0O 8945   5.153   7.654   4.298
  471EMI    H0P 8946   5.076   7.515   4.226
  471EMI    H0Q 8947   5.237   7.562   4.176
  471EMI    N02 8948   5.065   7.610   3.974
  471EMI    H0E 8949   5.146   7.771   4.080
  472EMI    C01 8950   2.617   6.426   7.177
  472EMI    C04 8951   2.525   6.632   7.183
  472EMI    C03 8952   2.439   6.551   7.120
  472EMI    H07 8953   2.685   6.344   7.190
  472EMI    H09 8954   2.513   6.736   7.203
  472EMI    H08 8955   2.343   6.578   7.080
  472EMI    C05 8956   2.442   6.297   7.059
  472EMI    H0B 8957   2.477   6.211   7.112
  472EMI    H0C 8958   2.336   6.303   7.065
  472EMI    H0D 8959   2.472   6.290   6.957
  472EMI    N00 8960   2.501   6.418   7.118
  472EMI    C06 8961   2.760   6.594   7.289
  472EMI    H0F 8962   2.833   6.627   7.218
  472EMI    C0N 8963   2.724   6.710   7.383
  472EMI    H0O 8964   2.811   6.743   7.435
  472EMI    H0P 8965   2.683   6.791   7.326
  472EMI    H0Q 8966   2.651   6.677   7.455
  472EMI    N02 8967   2.640   6.548   7.219
  472EMI    H0E 8968   2.800   6.513   7.347
  473EMI    C01 8969   7.238   3.297   1.837
  473EMI    C04 8970   7.352   3.472   1.924
  473EMI    C03 8971   7.225   3.512   1.907
  473EMI    H07 8972   7.214   3.201   1.799
  473EMI    H09 8973   7.432   3.530   1.964
  473EMI    H08 8974   7.184   3.608   1.930
  473EMI    C05 8975   7.011   3.393   1.815
  473EMI    H0B 8976   6.974   3.293   1.827
  473EMI    H0C 8977   6.957   3.459   1.879
  473EMI    H0D 8978   6.999   3.423   1.713
  473EMI    N00 8979   7.154   3.396   1.851
  473EMI    C06 8980   7.477   3.248   1.878
  473EMI    H0F 8981   7.529   3.259   1.785
  473EMI    C0N 8982   7.570   3.290   1.994
  473EMI    H0O 8983   7.657   3.227   1.994
  473EMI    H0P 8984   7.599   3.392   1.981
  473EMI    H0Q 8985   7.518   3.279   2.087
  473EMI    N02 8986   7.357   3.333   1.878
  473EMI    H0E 8987   7.448   3.145   1.891
  474EMI    C01 8988   7.284   6.408   6.196
  474EMI    C04 8989   7.357   6.584   6.075
  474EMI    C03 8990   7.225   6.575   6.056
  474EMI    H07 8991   7.281   6.323   6.260
  474EMI    H09 8992   7.423   6.657   6.033
  474EMI    H08 8993   7.164   6.638   5.994
  474EMI    C05 8994   7.043   6.410   6.144
  474EMI    H0B 8995   7.028   6.365   6.240
  474EMI    H0C 8996   6.975   6.492   6.132
  474EMI    H0D 8997   7.026   6.338   6.068
  474EMI    N00 8998   7.181   6.460   6.135
  474EMI    C06 8999   7.528   6.446   6.216
  474EMI    H0F 9000   7.577   6.379   6.150
  474EMI    C0N 9001   7.608   6.577   6.225
  474EMI    H0O 9002   7.707   6.556   6.262
  474EMI    H0P 9003   7.615   6.621   6.128
  474EMI    H0Q 9004   7.559   6.645   6.292
  474EMI    N02 9005   7.393   6.475   6.166
  474EMI    H0E 9006   7.521   6.402   6.314
  475EMI    C01 9007   0.440   3.797   2.380
  475EMI    C04 9008   0.464   3.622   2.240
  475EMI    C03 9009   0.369   3.589   2.328
  475EMI    H07 9010   0.452   3.892   2.428
  475EMI    H09 9011   0.500   3.562   2.159
  475EMI    H08 9012   0.314   3.498   2.332
  475EMI    C05 9013   0.262   3.714   2.531
  475EMI    H0B 9014   0.235   3.817   2.545
  475EMI    H0C 9015   0.175   3.656   2.510
  475EMI    H0D 9016   0.310   3.677   2.619
  475EMI    N00 9017   0.355   3.705   2.418
  475EMI    C06 9018   0.612   3.834   2.207
  475EMI    H0F 9019   0.707   3.814   2.251
  475EMI    C0N 9020   0.615   3.795   2.058
  475EMI    H0O 9021   0.690   3.852   2.007
  475EMI    H0P 9022   0.636   3.691   2.049
  475EMI    H0Q 9023   0.519   3.816   2.014
  475EMI    N02 9024   0.508   3.757   2.276
  475EMI    H0E 9025   0.590   3.939   2.215
  476EMI    C01 9026   0.788   5.421   6.028
  476EMI    C04 9027   0.997   5.347   5.987
  476EMI    C03 9028   1.006   5.438   6.084
  476EMI    H07 9029   0.682   5.435   6.024
  476EMI    H09 9030   1.077   5.292   5.942
  476EMI    H08 9031   1.095   5.470   6.134
  476EMI    C05 9032   0.829   5.585   6.208
  476EMI    H0B 9033   0.730   5.564   6.243
  476EMI    H0C 9034   0.897   5.582   6.291
  476EMI    H0D 9035   0.832   5.682   6.164
  476EMI    N00 9036   0.869   5.484   6.109
  476EMI    C06 9037   0.797   5.251   5.849
  476EMI    H0F 9038   0.795   5.302   5.755
  476EMI    C0N 9039   0.883   5.123   5.836
  476EMI    H0O 9040   0.840   5.059   5.761
  476EMI    H0P 9041   0.982   5.150   5.808
  476EMI    H0Q 9042   0.885   5.072   5.930
  476EMI    N02 9043   0.855   5.338   5.952
  476EMI    H0E 9044   0.697   5.224   5.877
  477EMI    C01 9045   6.515   6.786   4.223
  477EMI    C04 9046   6.572   6.636   4.382
  477EMI    C03 9047   6.438   6.644   4.381
  477EMI    H07 9048   6.520   6.859   4.145
  477EMI    H09 9049   6.632   6.574   4.444
  477EMI    H08 9050   6.370   6.590   4.444
  477EMI    C05 9051   6.268   6.784   4.241
  477EMI    H0B 9052   6.266   6.811   4.138
  477EMI    H0C 9053   6.200   6.703   4.258
  477EMI    H0D 9054   6.240   6.868   4.301
  477EMI    N00 9055   6.404   6.742   4.278
  477EMI    C06 9056   6.759   6.753   4.243
  477EMI    H0F 9057   6.797   6.833   4.303
  477EMI    C0N 9058   6.842   6.626   4.268
  477EMI    H0O 9059   6.944   6.644   4.242
  477EMI    H0P 9060   6.835   6.599   4.372
  477EMI    H0Q 9061   6.803   6.546   4.208
  477EMI    N02 9062   6.619   6.729   4.278
  477EMI    H0E 9063   6.765   6.780   4.140
  478EMI    C01 9064   7.338   7.202   3.350
  478EMI    C04 9065   7.276   7.418   3.329
  478EMI    C03 9066   7.410   7.415   3.331
  478EMI    H07 9067   7.335   7.095   3.361
  478EMI    H09 9068   7.214   7.504   3.320
  478EMI    H08 9069   7.476   7.498   3.324
  478EMI    C05 9070   7.584   7.221   3.351
  478EMI    H0B 9071   7.586   7.122   3.310
  478EMI    H0C 9072   7.649   7.285   3.295
  478EMI    H0D 9073   7.616   7.218   3.453
  478EMI    N00 9074   7.447   7.273   3.345
  478EMI    C06 9075   7.092   7.233   3.345
  478EMI    H0F 9076   7.057   7.232   3.446
  478EMI    C0N 9077   7.005   7.329   3.262
  478EMI    H0O 9078   6.903   7.296   3.264
  478EMI    H0P 9079   7.011   7.428   3.303
  478EMI    H0Q 9080   7.040   7.331   3.161
  478EMI    N02 9081   7.232   7.279   3.342
  478EMI    H0E 9082   7.086   7.135   3.304
  479EMI    C01 9083   7.457   0.195   1.298
  479EMI    C04 9084   7.397   0.061   1.470
  479EMI    C03 9085   7.525   0.092   1.487
  479EMI    H07 9086   7.455   0.254   1.209
  479EMI    H09 9087   7.336  -0.001   1.533
  479EMI    H08 9088   7.589   0.060   1.567
  479EMI    C05 9089   7.694   0.238   1.352
  479EMI    H0B 9090   7.683   0.332   1.300
  479EMI    H0C 9091   7.743   0.255   1.446
  479EMI    H0D 9092   7.753   0.172   1.292
  479EMI    N00 9093   7.562   0.179   1.375
  479EMI    C06 9094   7.220   0.124   1.288
  479EMI    H0F 9095   7.214   0.042   1.219
  479EMI    C0N 9096   7.116   0.106   1.399
  479EMI    H0O 9097   7.018   0.102   1.356
  479EMI    H0P 9098   7.135   0.014   1.452
  479EMI    H0Q 9099   7.122   0.188   1.467
  479EMI    N02 9100   7.355   0.129   1.347
  479EMI    H0E 9101   7.201   0.215   1.235
  480EMI    C01 9102   5.651   5.042   4.917
  480EMI    C04 9103   5.765   4.999   5.107
  480EMI    C03 9104   5.747   5.131   5.101
  480EMI    H07 9105   5.598   5.031   4.825
  480EMI    H09 9106   5.815   4.944   5.184
  480EMI    H08 9107   5.780   5.204   5.173
  480EMI    C05 9108   5.630   5.289   4.929
  480EMI    H0B 9109   5.540   5.278   4.872
  480EMI    H0C 9110   5.613   5.353   5.012
  480EMI    H0D 9111   5.707   5.330   4.867
  480EMI    N00 9112   5.673   5.156   4.978
  480EMI    C06 9113   5.696   4.802   4.950
  480EMI    H0F 9114   5.781   4.777   4.891
  480EMI    C0N 9115   5.694   4.716   5.078
  480EMI    H0O 9116   5.690   4.612   5.051
  480EMI    H0P 9117   5.783   4.735   5.135
  480EMI    H0Q 9118   5.609   4.741   5.137
  480EMI    N02 9119   5.701   4.944   4.987
  480EMI    H0E 9120   5.607   4.783   4.894
  481EMI    C01 9121   4.694   2.515   3.200
  481EMI    C04 9122   4.586   2.455   3.389
  481EMI    C03 9123   4.684   2.538   3.425
  481EMI    H07 9124   4.724   2.524   3.098
  481EMI    H09 9125   4.515   2.407   3.453
  481EMI    H08 9126   4.707   2.571   3.523
  481EMI    C05 9127   4.867   2.666   3.290
  481EMI    H0B 9128   4.865   2.716   3.196
  481EMI    H0C 9129   4.863   2.739   3.369
  481EMI    H0D 9130   4.958   2.610   3.299
  481EMI    N00 9131   4.752   2.576   3.301
  481EMI    C06 9132   4.507   2.359   3.159
  481EMI    H0F 9133   4.548   2.261   3.150
  481EMI    C0N 9134   4.367   2.350   3.224
  481EMI    H0O 9135   4.303   2.290   3.163
  481EMI    H0P 9136   4.376   2.306   3.321
  481EMI    H0Q 9137   4.326   2.449   3.233
  481EMI    N02 9138   4.595   2.441   3.243
  481EMI    H0E 9139   4.498   2.404   3.062
  482EMI    C01 9140   2.223   3.239   7.251
  482EMI    C04 9141   2.267   3.020   7.219
  482EMI    C03 9142   2.134   3.034   7.219
  482EMI    H07 9143   2.234   3.344   7.267
  482EMI    H09 9144   2.322   2.929   7.207
  482EMI    H08 9145   2.061   2.957   7.207
  482EMI    C05 9146   1.976   3.240   7.247
  482EMI    H0B 9147   1.982   3.340   7.211
  482EMI    H0C 9148   1.907   3.184   7.187
  482EMI    H0D 9149   1.942   3.240   7.349
  482EMI    N00 9150   2.108   3.177   7.240
  482EMI    C06 9151   2.465   3.188   7.247
  482EMI    H0F 9152   2.498   3.181   7.349
  482EMI    C0N 9153   2.545   3.089   7.161
  482EMI    H0O 9154   2.649   3.114   7.166
  482EMI    H0P 9155   2.530   2.990   7.197
  482EMI    H0Q 9156   2.512   3.096   7.059
  482EMI    N02 9157   2.322   3.154   7.240
  482EMI    H0E 9158   2.480   3.288   7.211
  483EMI    C01 9159   1.343   4.733   4.868
  483EMI    C04 9160   1.522   4.867   4.897
  483EMI    C03 9161   1.424   4.943   4.849
  483EMI    H07 9162   1.278   4.648   4.865
  483EMI    H09 9163   1.622   4.898   4.921
  483EMI    H08 9164   1.428   5.048   4.828
  483EMI    C05 9165   1.176   4.894   4.781
  483EMI    H0B 9166   1.101   4.832   4.824
  483EMI    H0C 9167   1.158   4.996   4.807
  483EMI    H0D 9168   1.174   4.884   4.675
  483EMI    N00 9169   1.308   4.854   4.832
  483EMI    C06 9170   1.540   4.613   4.956
  483EMI    H0F 9171   1.587   4.564   4.873
  483EMI    C0N 9172   1.646   4.656   5.058
  483EMI    H0O 9173   1.699   4.570   5.093
  483EMI    H0P 9174   1.715   4.724   5.012
  483EMI    H0Q 9175   1.599   4.705   5.141
  483EMI    N02 9176   1.467   4.731   4.908
  483EMI    H0E 9177   1.471   4.545   5.002
  484EMI    C01 9178   5.684   4.158   1.742
  484EMI    C04 9179   5.877   4.243   1.822
  484EMI    C03 9180   5.791   4.344   1.809
  484EMI    H07 9181   5.609   4.090   1.705
  484EMI    H09 9182   5.978   4.247   1.857
  484EMI    H08 9183   5.809   4.447   1.833
  484EMI    C05 9184   5.544   4.361   1.728
  484EMI    H0B 9185   5.459   4.297   1.742
  484EMI    H0C 9186   5.536   4.445   1.793
  484EMI    H0D 9187   5.546   4.394   1.626
  484EMI    N00 9188   5.667   4.286   1.757
  484EMI    C06 9189   5.859   3.987   1.773
  484EMI    H0F 9190   5.905   3.969   1.678
  484EMI    C0N 9191   5.965   3.970   1.884
  484EMI    H0O 9192   6.004   3.871   1.882
  484EMI    H0P 9193   6.044   4.041   1.869
  484EMI    H0Q 9194   5.919   3.988   1.980
  484EMI    N02 9195   5.805   4.123   1.777
  484EMI    H0E 9196   5.780   3.916   1.789
  485EMI    C01 9197   4.411   3.852   2.609
  485EMI    C04 9198   4.472   3.863   2.826
  485EMI    C03 9199   4.341   3.887   2.821
  485EMI    H07 9200   4.414   3.841   2.503
  485EMI    H09 9201   4.534   3.860   2.914
  485EMI    H08 9202   4.276   3.907   2.903
  485EMI    C05 9203   4.169   3.898   2.625
  485EMI    H0B 9204   4.158   3.840   2.536
  485EMI    H0C 9205   4.097   3.868   2.697
  485EMI    H0D 9206   4.155   4.002   2.601
  485EMI    N00 9207   4.304   3.879   2.679
  485EMI    C06 9208   4.652   3.811   2.645
  485EMI    H0F 9209   4.704   3.902   2.624
  485EMI    C0N 9210   4.726   3.734   2.756
  485EMI    H0O 9211   4.826   3.713   2.725
  485EMI    H0P 9212   4.729   3.795   2.845
  485EMI    H0Q 9213   4.674   3.643   2.777
  485EMI    N02 9214   4.515   3.841   2.688
  485EMI    H0E 9215   4.650   3.751   2.556
  486EMI    C01 9216   4.269   6.980   0.871
  486EMI    C04 9217   4.411   7.128   0.776
  486EMI    C03 9218   4.431   7.010   0.716
  486EMI    H07 9219   4.193   6.936   0.932
  486EMI    H09 9220   4.462   7.220   0.756
  486EMI    H08 9221   4.500   6.988   0.638
  486EMI    C05 9222   4.323   6.774   0.745
  486EMI    H0B 9223   4.222   6.743   0.764
  486EMI    H0C 9224   4.347   6.760   0.642
  486EMI    H0D 9225   4.389   6.716   0.806
  486EMI    N00 9226   4.337   6.917   0.779
  486EMI    C06 9227   4.251   7.208   0.966
  486EMI    H0F 9228   4.308   7.209   1.057
  486EMI    C0N 9229   4.259   7.346   0.899
  486EMI    H0O 9230   4.219   7.420   0.965
  486EMI    H0P 9231   4.361   7.369   0.877
  486EMI    H0Q 9232   4.202   7.345   0.808
  486EMI    N02 9233   4.306   7.106   0.876
  486EMI    H0E 9234   4.149   7.184   0.988
  487EMI    C01 9235   3.418   5.348   5.440
  487EMI    C04 9236   3.585   5.226   5.530
  487EMI    C03 9237   3.568   5.183   5.405
  487EMI    H07 9238   3.340   5.419   5.427
  487EMI    H09 9239   3.656   5.190   5.602
  487EMI    H08 9240   3.623   5.106   5.355
  487EMI    C05 9241   3.406   5.253   5.212
  487EMI    H0B 9242   3.370   5.348   5.180
  487EMI    H0C 9243   3.484   5.220   5.146
  487EMI    H0D 9244   3.326   5.182   5.211
  487EMI    N00 9245   3.460   5.264   5.349
  487EMI    C06 9246   3.468   5.409   5.675
  487EMI    H0F 9247   3.396   5.360   5.737
  487EMI    C0N 9248   3.602   5.420   5.749
  487EMI    H0O 9249   3.588   5.476   5.840
  487EMI    H0P 9250   3.637   5.321   5.773
  487EMI    H0Q 9251   3.674   5.469   5.687
  487EMI    N02 9252   3.487   5.333   5.551
  487EMI    H0E 9253   3.433   5.507   5.651
  488EMI    C01 9254   2.099   2.674   3.459
  488EMI    C04 9255   2.032   2.635   3.671
  488EMI    C03 9256   1.946   2.572   3.590
  488EMI    H07 9257   2.153   2.709   3.374
  488EMI    H09 9258   2.030   2.637   3.778
  488EMI    H08 9259   1.861   2.513   3.619
  488EMI    C05 9260   1.928   2.550   3.330
  488EMI    H0B 9261   2.002   2.538   3.254
  488EMI    H0C 9262   1.881   2.456   3.350
  488EMI    H0D 9263   1.855   2.621   3.298
  488EMI    N00 9264   1.992   2.599   3.453
  488EMI    C06 9265   2.244   2.782   3.628
  488EMI    H0F 9266   2.213   2.884   3.636
  488EMI    C0N 9267   2.292   2.731   3.766
  488EMI    H0O 9268   2.375   2.791   3.798
  488EMI    H0P 9269   2.212   2.740   3.837
  488EMI    H0Q 9270   2.322   2.629   3.758
  488EMI    N02 9271   2.130   2.700   3.583
  488EMI    H0E 9272   2.323   2.773   3.557
  489EMI    C01 9273   4.444   7.323   7.861
  489EMI    C04 9274   4.492   7.183   7.690
  489EMI    C03 9275   4.365   7.161   7.725
  489EMI    H07 9276   4.452   7.398   7.937
  489EMI    H09 9277   4.547   7.134   7.613
  489EMI    H08 9278   4.298   7.090   7.682
  489EMI    C05 9279   4.209   7.264   7.908
  489EMI    H0B 9280   4.197   7.364   7.943
  489EMI    H0C 9281   4.129   7.239   7.841
  489EMI    H0D 9282   4.209   7.197   7.991
  489EMI    N00 9283   4.337   7.253   7.836
  489EMI    C06 9284   4.676   7.347   7.778
  489EMI    H0F 9285   4.740   7.291   7.844
  489EMI    C0N 9286   4.733   7.341   7.635
  489EMI    H0O 9287   4.831   7.383   7.634
  489EMI    H0P 9288   4.737   7.240   7.602
  489EMI    H0Q 9289   4.669   7.397   7.569
  489EMI    N02 9290   4.541   7.289   7.780
  489EMI    H0E 9291   4.672   7.449   7.811
  490EMI    C01 9292   5.671   4.450   0.933
  490EMI    C04 9293   5.736   4.639   0.829
  490EMI    C03 9294   5.846   4.567   0.852
  490EMI    H07 9295   5.611   4.374   0.979
  490EMI    H09 9296   5.731   4.735   0.781
  490EMI    H08 9297   5.947   4.592   0.826
  490EMI    C05 9298   5.887   4.335   0.964
  490EMI    H0B 9299   5.832   4.243   0.961
  490EMI    H0C 9300   5.972   4.328   0.900
  490EMI    H0D 9301   5.919   4.353   1.064
  490EMI    N00 9302   5.801   4.445   0.919
  490EMI    C06 9303   5.483   4.602   0.880
  490EMI    H0F 9304   5.460   4.657   0.969
  490EMI    C0N 9305   5.457   4.690   0.757
  490EMI    H0O 9306   5.354   4.720   0.755
  490EMI    H0P 9307   5.519   4.777   0.762
  490EMI    H0Q 9308   5.480   4.635   0.668
  490EMI    N02 9309   5.624   4.562   0.882
  490EMI    H0E 9310   5.421   4.515   0.875
  491EMI    C01 9311   1.168   1.814   0.533
  491EMI    C04 9312   1.389   1.828   0.490
  491EMI    C03 9313   1.354   1.700   0.478
  491EMI    H07 9314   1.066   1.838   0.558
  491EMI    H09 9315   1.486   1.871   0.477
  491EMI    H08 9316   1.419   1.618   0.453
  491EMI    C05 9317   1.129   1.571   0.506
  491EMI    H0B 9318   1.028   1.596   0.478
  491EMI    H0C 9319   1.169   1.502   0.435
  491EMI    H0D 9320   1.129   1.527   0.603
  491EMI    N00 9321   1.211   1.693   0.507
  491EMI    C06 9322   1.255   2.045   0.550
  491EMI    H0F 9323   1.272   2.065   0.653
  491EMI    C0N 9324   1.359   2.119   0.464
  491EMI    H0O 9325   1.351   2.224   0.481
  491EMI    H0P 9326   1.457   2.085   0.491
  491EMI    H0Q 9327   1.342   2.098   0.361
  491EMI    N02 9328   1.266   1.900   0.526
  491EMI    H0E 9329   1.157   2.078   0.523
  492EMI    C01 9330   2.714   4.219   7.208
  492EMI    C04 9331   2.534   4.134   7.101
  492EMI    C03 9332   2.563   4.051   7.201
  492EMI    H07 9333   2.796   4.281   7.237
  492EMI    H09 9334   2.454   4.125   7.031
  492EMI    H08 9335   2.512   3.960   7.227
  492EMI    C05 9336   2.748   4.050   7.385
  492EMI    H0B 9337   2.791   4.128   7.444
  492EMI    H0C 9338   2.678   3.995   7.444
  492EMI    H0D 9339   2.826   3.984   7.352
  492EMI    N00 9340   2.680   4.108   7.269
  492EMI    C06 9341   2.640   4.358   7.018
  492EMI    H0F 9342   2.702   4.334   6.934
  492EMI    C0N 9343   2.498   4.393   6.968
  492EMI    H0O 9344   2.504   4.477   6.902
  492EMI    H0P 9345   2.458   4.309   6.915
  492EMI    H0Q 9346   2.436   4.416   7.051
  492EMI    N02 9347   2.633   4.242   7.108
  492EMI    H0E 9348   2.681   4.442   7.070
  493EMI    C01 9349   5.965   6.633   2.051
  493EMI    C04 9350   6.050   6.424   2.056
  493EMI    C03 9351   6.153   6.508   2.046
  493EMI    H07 9352   5.897   6.716   2.050
  493EMI    H09 9353   6.055   6.317   2.061
  493EMI    H08 9354   6.257   6.483   2.042
  493EMI    C05 9355   6.171   6.769   2.032
  493EMI    H0B 9356   6.117   6.847   2.082
  493EMI    H0C 9357   6.267   6.756   2.078
  493EMI    H0D 9358   6.183   6.794   1.929
  493EMI    N00 9359   6.095   6.643   2.043
  493EMI    C06 9360   5.792   6.458   2.069
  493EMI    H0F 9361   5.752   6.441   1.971
  493EMI    C0N 9362   5.790   6.326   2.149
  493EMI    H0O 9363   5.690   6.290   2.157
  493EMI    H0P 9364   5.851   6.253   2.099
  493EMI    H0Q 9365   5.830   6.343   2.247
  493EMI    N02 9366   5.930   6.507   2.059
  493EMI    H0E 9367   5.731   6.530   2.120
  494EMI    C01 9368   5.104   4.395   1.535
  494EMI    C04 9369   5.057   4.283   1.345
  494EMI    C03 9370   5.178   4.339   1.329
  494EMI    H07 9371   5.097   4.437   1.633
  494EMI    H09 9372   5.004   4.223   1.274
  494EMI    H08 9373   5.241   4.332   1.243
  494EMI    C05 9374   5.327   4.487   1.483
  494EMI    H0B 9375   5.347   4.485   1.588
  494EMI    H0C 9376   5.410   4.445   1.430
  494EMI    H0D 9377   5.313   4.589   1.452
  494EMI    N00 9378   5.205   4.410   1.454
  494EMI    C06 9379   4.884   4.283   1.540
  494EMI    H0F 9380   4.810   4.356   1.517
  494EMI    C0N 9381   4.840   4.146   1.485
  494EMI    H0O 9382   4.747   4.117   1.530
  494EMI    H0P 9383   4.828   4.152   1.379
  494EMI    H0Q 9384   4.914   4.072   1.508
  494EMI    N02 9385   5.012   4.321   1.479
  494EMI    H0E 9386   4.896   4.276   1.646
  495EMI    C01 9387   1.835   3.719   1.500
  495EMI    C04 9388   1.841   3.832   1.305
  495EMI    C03 9389   1.780   3.715   1.281
  495EMI    H07 9390   1.847   3.692   1.603
  495EMI    H09 9391   1.861   3.910   1.234
  495EMI    H08 9392   1.741   3.681   1.188
  495EMI    C05 9393   1.720   3.511   1.433
  495EMI    H0B 9394   1.684   3.505   1.533
  495EMI    H0C 9395   1.639   3.495   1.365
  495EMI    H0D 9396   1.795   3.437   1.417
  495EMI    N00 9397   1.778   3.645   1.410
  495EMI    C06 9398   1.945   3.940   1.519
  495EMI    H0F 9399   2.050   3.924   1.514
  495EMI    C0N 9400   1.910   4.075   1.453
  495EMI    H0O 9401   1.960   4.154   1.505
  495EMI    H0P 9402   1.942   4.074   1.351
  495EMI    H0Q 9403   1.805   4.091   1.457
  495EMI    N02 9404   1.876   3.832   1.447
  495EMI    H0E 9405   1.913   3.941   1.621
  496EMI    C01 9406   0.699   3.326   1.333
  496EMI    C04 9407   0.791   3.123   1.366
  496EMI    C03 9408   0.884   3.214   1.397
  496EMI    H07 9409   0.630   3.404   1.309
  496EMI    H09 9410   0.802   3.016   1.371
  496EMI    H08 9411   0.984   3.195   1.431
  496EMI    C05 9412   0.886   3.475   1.395
  496EMI    H0B 9413   0.812   3.547   1.423
  496EMI    H0C 9414   0.959   3.467   1.473
  496EMI    H0D 9415   0.934   3.506   1.305
  496EMI    N00 9416   0.822   3.345   1.374
  496EMI    C06 9417   0.545   3.140   1.282
  496EMI    H0F 9418   0.546   3.125   1.176
  496EMI    C0N 9419   0.524   3.005   1.353
  496EMI    H0O 9420   0.431   2.962   1.321
  496EMI    H0P 9421   0.604   2.938   1.327
  496EMI    H0Q 9422   0.522   3.020   1.459
  496EMI    N02 9423   0.673   3.198   1.325
  496EMI    H0E 9424   0.465   3.206   1.307
  497EMI    C01 9425   2.196   7.605   1.651
  497EMI    C04 9426   1.972   7.597   1.623
  497EMI    C03 9427   2.006   7.726   1.638
  497EMI    H07 9428   2.299   7.576   1.661
  497EMI    H09 9429   1.874   7.558   1.607
  497EMI    H08 9430   1.940   7.810   1.637
  497EMI    C05 9431   2.234   7.847   1.677
  497EMI    H0B 9432   2.331   7.831   1.636
  497EMI    H0C 9433   2.188   7.931   1.628
  497EMI    H0D 9434   2.241   7.868   1.782
  497EMI    N00 9435   2.151   7.727   1.656
  497EMI    C06 9436   2.110   7.375   1.620
  497EMI    H0F 9437   2.100   7.331   1.717
  497EMI    C0N 9438   1.998   7.321   1.528
  497EMI    H0O 9439   2.007   7.215   1.520
  497EMI    H0P 9440   1.903   7.346   1.570
  497EMI    H0Q 9441   2.008   7.365   1.431
  497EMI    N02 9442   2.097   7.521   1.632
  497EMI    H0E 9443   2.205   7.350   1.579
  498EMI    C01 9444   3.123   1.538   7.304
  498EMI    C04 9445   3.228   1.738   7.291
  498EMI    C03 9446   3.313   1.652   7.348
  498EMI    H07 9447   3.050   1.460   7.296
  498EMI    H09 9448   3.245   1.841   7.270
  498EMI    H08 9449   3.413   1.673   7.381
  498EMI    C05 9450   3.298   1.399   7.410
  498EMI    H0B 9451   3.254   1.315   7.360
  498EMI    H0C 9452   3.404   1.398   7.397
  498EMI    H0D 9453   3.275   1.393   7.515
  498EMI    N00 9454   3.243   1.524   7.355
  498EMI    C06 9455   2.984   1.714   7.201
  498EMI    H0F 9456   2.918   1.752   7.277
  498EMI    C0N 9457   3.021   1.828   7.104
  498EMI    H0O 9458   2.932   1.867   7.059
  498EMI    H0P 9459   3.070   1.906   7.159
  498EMI    H0Q 9460   3.086   1.791   7.029
  498EMI    N02 9461   3.106   1.661   7.264
  498EMI    H0E 9462   2.934   1.636   7.147
  499EMI    C01 9463   3.786   6.925   4.159
  499EMI    C04 9464   3.957   6.854   4.030
  499EMI    C03 9465   3.961   6.987   4.030
  499EMI    H07 9466   3.700   6.927   4.223
  499EMI    H09 9467   4.024   6.787   3.979
  499EMI    H08 9468   4.031   7.050   3.979
  499EMI    C05 9469   3.812   7.170   4.143
  499EMI    H0B 9470   3.767   7.176   4.240
  499EMI    H0C 9471   3.900   7.231   4.141
  499EMI    H0D 9472   3.743   7.205   4.069
  499EMI    N00 9473   3.849   7.031   4.114
  499EMI    C06 9474   3.801   6.679   4.144
  499EMI    H0F 9475   3.730   6.646   4.070
  499EMI    C0N 9476   3.923   6.585   4.142
  499EMI    H0O 9477   3.892   6.485   4.164
  499EMI    H0P 9478   3.969   6.588   4.045
  499EMI    H0Q 9479   3.994   6.617   4.216
  499EMI    N02 9480   3.843   6.816   4.114
  499EMI    H0E 9481   3.755   6.676   4.241
  500EMI    C01 9482   5.753   5.434   7.562
  500EMI    C04 9483   5.624   5.546   7.710
  500EMI    C03 9484   5.582   5.580   7.587
  500EMI    H07 9485   5.827   5.370   7.519
  500EMI    H09 9486   5.585   5.581   7.803
  500EMI    H08 9487   5.503   5.647   7.563
  500EMI    C05 9488   5.658   5.511   7.347
  500EMI    H0B 9489   5.689   5.417   7.306
  500EMI    H0C 9490   5.556   5.530   7.319
  500EMI    H0D 9491   5.721   5.589   7.310
  500EMI    N00 9492   5.667   5.506   7.494
  500EMI    C06 9493   5.813   5.388   7.797
  500EMI    H0F 9494   5.897   5.450   7.822
  500EMI    C0N 9495   5.724   5.371   7.922
  500EMI    H0O 9496   5.781   5.324   8.000
  500EMI    H0P 9497   5.690   5.467   7.955
  500EMI    H0Q 9498   5.640   5.309   7.898
  500EMI    N02 9499   5.735   5.452   7.690
  500EMI    H0E 9500   5.847   5.292   7.764
    1NSC    NBT 9501   7.534   4.392   1.914
    1NSC    SBT 9502   7.458   4.249   1.918
    1NSC    SBT 9503   7.466   4.537   1.890
    1NSC    OBT 9504   7.405   4.554   1.757
    1NSC    CBT 9505   7.617   4.644   1.886
    1NSC    OBT 9506   7.388   4.586   2.005
    1NSC    OBT 9507   7.384   4.217   1.795
    1NSC    OBT 9508   7.550   4.143   1.967
    1NSC     F1 9509   7.697   4.604   1.786
    1NSC     F1 9510   7.581   4.770   1.864
    1NSC     F1 9511   7.681   4.636   2.003
    1NSC    CBT 9512   7.332   4.268   2.053
    1NSC     F1 9513   7.294   4.147   2.093
    1NSC     F1 9514   7.384   4.335   2.155
    1NSC     F1 9515   7.225   4.332   2.003
    2NSC    NBT 9516   6.189   0.452   1.438
    2NSC    SBT 9517   6.206   0.590   1.355
    2NSC    SBT 9518   6.307   0.367   1.510
    2NSC    OBT 9519   6.406   0.310   1.417
    2NSC    CBT 9520   6.210   0.221   1.570
    2NSC    OBT 9521   6.360   0.430   1.633
    2NSC    OBT 9522   6.297   0.579   1.240
    2NSC    OBT 9523   6.074   0.649   1.326
    2NSC     F1 9524   6.154   0.159   1.465
    2NSC     F1 9525   6.293   0.136   1.631
    2NSC     F1 9526   6.117   0.261   1.655
    2NSC    CBT 9527   6.286   0.707   1.475
    2NSC     F1 9528   6.266   0.831   1.433
    2NSC     F1 9529   6.232   0.691   1.596
    2NSC     F1 9530   6.417   0.682   1.478
    3NSC    NBT 9531   0.482   3.275   0.369
    3NSC    SBT 9532   0.409   3.261   0.225
    3NSC    SBT 9533   0.634   3.230   0.405
    3NSC    OBT 9534   0.657   3.085   0.396
    3NSC    CBT 9535   0.636   3.267   0.587
    3NSC    OBT 9536   0.737   3.318   0.348
    3NSC    OBT 9537   0.402   3.122   0.175
    3NSC    OBT 9538   0.281   3.334   0.225
    3NSC     F1 9539   0.541   3.194   0.648
    3NSC     F1 9540   0.754   3.233   0.637
    3NSC     F1 9541   0.614   3.396   0.607
    3NSC    CBT 9542   0.518   3.354   0.108
    3NSC     F1 9543   0.448   3.385   0.000
    3NSC     F1 9544   0.561   3.466   0.166
    3NSC     F1 9545   0.621   3.276   0.073
    4NSC    NBT 9546   7.317   1.315   7.623
    4NSC    SBT 9547   7.339   1.155   7.631
    4NSC    SBT 9548   7.414   1.430   7.685
    4NSC    OBT 9549   7.420   1.428   7.832
    4NSC    CBT 9550   7.315   1.581   7.644
    4NSC    OBT 9551   7.541   1.447   7.613
    4NSC    OBT 9552   7.346   1.103   7.769
    4NSC    OBT 9553   7.244   1.085   7.542
    4NSC     F1 9554   7.194   1.573   7.703
    4NSC     F1 9555   7.378   1.689   7.692
    4NSC     F1 9556   7.301   1.592   7.513
    4NSC    CBT 9557   7.506   1.127   7.555
    4NSC     F1 9558   7.515   1.000   7.519
    4NSC     F1 9559   7.520   1.205   7.448
    4NSC     F1 9560   7.600   1.153   7.646
    5NSC    NBT 9561   3.625   6.884   6.863
    5NSC    SBT 9562   3.466   6.905   6.850
    5NSC    SBT 9563   3.741   6.988   6.817
    5NSC    OBT 9564   3.746   7.011   6.671
    5NSC    CBT 9565   3.892   6.886   6.853
    5NSC    OBT 9566   3.753   7.106   6.904
    5NSC    OBT 9567   3.419   6.927   6.712
    5NSC    OBT 9568   3.393   6.800   6.925
    5NSC     F1 9569   3.888   6.774   6.781
    5NSC     F1 9570   4.001   6.956   6.818
    5NSC     F1 9571   3.897   6.858   6.982
    5NSC    CBT 9572   3.432   7.062   6.943
    5NSC     F1 9573   3.303   7.066   6.975
    5NSC     F1 9574   3.505   7.065   7.054
    5NSC     F1 9575   3.461   7.166   6.864
    6NSC    NBT 9576   0.528   2.618   7.704
    6NSC    SBT 9577   0.615   2.702   7.597
    6NSC    SBT 9578   0.565   2.474   7.769
    6NSC    OBT 9579   0.569   2.364   7.670
    6NSC    CBT 9580   0.412   2.441   7.868
    6NSC    OBT 9581   0.674   2.478   7.868
    6NSC    OBT 9582   0.641   2.629   7.472
    6NSC    OBT 9583   0.561   2.838   7.582
    6NSC     F1 9584   0.305   2.439   7.786
    6NSC     F1 9585   0.423   2.323   7.928
    6NSC     F1 9586   0.397   2.536   7.960
    6NSC    CBT 9587   0.780   2.725   7.681
    6NSC     F1 9588   0.843   2.826   7.622
    6NSC     F1 9589   0.761   2.752   7.809
    6NSC     F1 9590   0.852   2.614   7.665
    7NSC    NBT 9591   5.865   1.335   4.778
    7NSC    SBT 9592   5.960   1.462   4.746
    7NSC    SBT 9593   5.842   1.204   4.685
    7NSC    OBT 9594   5.776   1.234   4.557
    7NSC    CBT 9595   5.713   1.115   4.784
    7NSC    OBT 9596   5.957   1.112   4.681
    7NSC    OBT 9597   5.926   1.532   4.621
    7NSC    OBT 9598   5.974   1.548   4.865
    7NSC     F1 9599   5.605   1.194   4.797
    7NSC     F1 9600   5.678   1.004   4.721
    7NSC     F1 9601   5.762   1.085   4.904
    7NSC    CBT 9602   6.128   1.387   4.720
    7NSC     F1 9603   6.219   1.482   4.735
    7NSC     F1 9604   6.149   1.291   4.810
    7NSC     F1 9605   6.136   1.339   4.596
    8NSC    NBT 9606   4.160   4.138   2.904
    8NSC    SBT 9607   4.201   4.201   2.760
    8NSC    SBT 9608   4.248   4.141   3.040
    8NSC    OBT 9609   4.374   4.065   3.031
    8NSC    CBT 9610   4.140   4.040   3.151
    8NSC    OBT 9611   4.254   4.274   3.104
    8NSC    OBT 9612   4.326   4.146   2.705
    8NSC    OBT 9613   4.085   4.200   2.668
    8NSC     F1 9614   4.124   3.917   3.098
    8NSC     F1 9615   4.198   4.028   3.270
    8NSC     F1 9616   4.022   4.099   3.165
    8NSC    CBT 9617   4.233   4.380   2.796
    8NSC     F1 9618   4.225   4.448   2.682
    8NSC     F1 9619   4.141   4.426   2.881
    8NSC     F1 9620   4.355   4.394   2.846
    9NSC    NBT 9621   2.087   0.728   1.474
    9NSC    SBT 9622   2.157   0.592   1.525
    9NSC    SBT 9623   2.158   0.850   1.393
    9NSC    OBT 9624   2.261   0.921   1.472
    9NSC    CBT 9625   2.017   0.969   1.383
    9NSC    OBT 9626   2.191   0.818   1.253
    9NSC    OBT 9627   2.270   0.614   1.618
    9NSC    OBT 9628   2.056   0.495   1.571
    9NSC     F1 9629   1.977   1.001   1.507
    9NSC     F1 9630   2.058   1.080   1.322
    9NSC     F1 9631   1.917   0.915   1.315
    9NSC    CBT 9632   2.230   0.516   1.371
    9NSC     F1 9633   2.251   0.387   1.394
    9NSC     F1 9634   2.144   0.530   1.271
    9NSC     F1 9635   2.346   0.576   1.344
   10NSC    NBT 9636   4.912   3.097   1.836
   10NSC    SBT 9637   4.752   3.071   1.830
   10NSC    SBT 9638   5.025   2.994   1.890
   10NSC    OBT 9639   5.015   2.965   2.034
   10NSC    CBT 9640   5.176   3.102   1.876
   10NSC    OBT 9641   5.051   2.881   1.800
   10NSC    OBT 9642   4.692   3.041   1.961
   10NSC    OBT 9643   4.685   3.177   1.752
   10NSC     F1 9644   5.160   3.211   1.952
   10NSC     F1 9645   5.282   3.034   1.920
   10NSC     F1 9646   5.194   3.137   1.749
   10NSC    CBT 9647   4.735   2.917   1.727
   10NSC     F1 9648   4.611   2.911   1.681
   10NSC     F1 9649   4.820   2.922   1.625
   10NSC     F1 9650   4.758   2.811   1.804
   11NSC    NBT 9651   7.176   6.218   4.887
   11NSC    SBT 9652   7.031   6.243   4.955
   11NSC    SBT 9653   7.206   6.198   4.728
   11NSC    OBT 9654   7.146   6.076   4.671
   11NSC    CBT 9655   7.388   6.162   4.735
   11NSC    OBT 9656   7.195   6.322   4.649
   11NSC    OBT 9657   6.933   6.137   4.928
   11NSC    OBT 9658   7.047   6.281   5.097
   11NSC     F1 9659   7.409   6.052   4.809
   11NSC     F1 9660   7.432   6.139   4.611
   11NSC     F1 9661   7.453   6.266   4.787
   11NSC    CBT 9662   6.967   6.396   4.871
   11NSC     F1 9663   6.872   6.449   4.947
   11NSC     F1 9664   7.066   6.484   4.856
   11NSC     F1 9665   6.915   6.362   4.753
   12NSC    NBT 9666   4.300   7.639   4.608
   12NSC    SBT 9667   4.224   7.665   4.749
   12NSC    SBT 9668   4.384   7.507   4.566
   12NSC    OBT 9669   4.505   7.485   4.647
   12NSC    CBT 9670   4.449   7.561   4.401
   12NSC    OBT 9671   4.300   7.389   4.538
   12NSC    OBT 9672   4.312   7.658   4.867
   12NSC    OBT 9673   4.139   7.785   4.740
   12NSC     F1 9674   4.524   7.671   4.416
   12NSC     F1 9675   4.525   7.464   4.350
   12NSC     F1 9676   4.347   7.585   4.319
   12NSC    CBT 9677   4.105   7.523   4.763
   12NSC     F1 9678   4.011   7.556   4.850
   12NSC     F1 9679   4.050   7.498   4.645
   12NSC     F1 9680   4.171   7.416   4.809
   13NSC    NBT 9681   6.858   1.506   5.003
   13NSC    SBT 9682   6.708   1.463   5.044
   13NSC    SBT 9683   6.987   1.408   4.992
   13NSC    OBT 9684   7.028   1.349   5.121
   13NSC    CBT 9685   7.119   1.532   4.953
   13NSC    OBT 9686   6.984   1.318   4.875
   13NSC    OBT 9687   6.697   1.401   5.178
   13NSC    OBT 9688   6.613   1.575   5.019
   13NSC     F1 9689   7.126   1.621   5.053
   13NSC     F1 9690   7.236   1.469   4.944
   13NSC     F1 9691   7.091   1.593   4.839
   13NSC    CBT 9692   6.661   1.332   4.921
   13NSC     F1 9693   6.529   1.321   4.918
   13NSC     F1 9694   6.705   1.366   4.801
   13NSC     F1 9695   6.714   1.216   4.960
   14NSC    NBT 9696   4.777   7.536   3.210
   14NSC    SBT 9697   4.642   7.474   3.276
   14NSC    SBT 9698   4.818   7.534   3.054
   14NSC    OBT 9699   4.843   7.399   3.001
   14NSC    CBT 9700   4.987   7.612   3.064
   14NSC    OBT 9701   4.740   7.625   2.969
   14NSC    OBT 9702   4.626   7.330   3.252
   14NSC    OBT 9703   4.628   7.518   3.416
   14NSC     F1 9704   5.065   7.537   3.143
   14NSC     F1 9705   5.040   7.616   2.942
   14NSC     F1 9706   4.976   7.735   3.112
   14NSC    CBT 9707   4.504   7.559   3.185
   14NSC     F1 9708   4.393   7.548   3.257
   14NSC     F1 9709   4.533   7.687   3.168
   14NSC     F1 9710   4.485   7.497   3.068
   15NSC    NBT 9711   3.218   4.322   6.900
   15NSC    SBT 9712   3.264   4.361   7.050
   15NSC    SBT 9713   3.090   4.381   6.819
   15NSC    OBT 9714   2.960   4.344   6.880
   15NSC    CBT 9715   3.099   4.279   6.664
   15NSC    OBT 9716   3.106   4.520   6.774
   15NSC    OBT 9717   3.162   4.335   7.153
   15NSC    OBT 9718   3.399   4.306   7.078
   15NSC     F1 9719   3.089   4.149   6.696
   15NSC     F1 9720   2.997   4.312   6.585
   15NSC     F1 9721   3.214   4.303   6.602
   15NSC    CBT 9722   3.288   4.545   7.044
   15NSC     F1 9723   3.365   4.581   7.146
   15NSC     F1 9724   3.346   4.580   6.930
   15NSC     F1 9725   3.169   4.604   7.057
   16NSC    NBT 9726   4.019   1.123   4.228
   16NSC    SBT 9727   4.060   0.968   4.215
   16NSC    SBT 9728   4.117   1.247   4.264
   16NSC    OBT 9729   4.173   1.240   4.401
   16NSC    CBT 9730   3.994   1.386   4.273
   16NSC    OBT 9731   4.209   1.285   4.156
   16NSC    OBT 9732   4.119   0.911   4.337
   16NSC    OBT 9733   3.949   0.889   4.156
   16NSC     F1 9734   3.902   1.358   4.367
   16NSC     F1 9735   4.057   1.498   4.305
   16NSC     F1 9736   3.935   1.400   4.154
   16NSC    CBT 9737   4.193   0.966   4.085
   16NSC     F1 9738   4.204   0.843   4.037
   16NSC     F1 9739   4.162   1.050   3.987
   16NSC     F1 9740   4.309   1.000   4.142
   17NSC    NBT 9741   1.939   1.429   3.338
   17NSC    SBT 9742   2.048   1.549   3.335
   17NSC    SBT 9743   1.962   1.276   3.290
   17NSC    OBT 9744   1.989   1.262   3.146
   17NSC    CBT 9745   1.790   1.209   3.312
   17NSC    OBT 9746   2.046   1.196   3.381
   17NSC    OBT 9747   2.102   1.577   3.201
   17NSC    OBT 9748   1.997   1.666   3.409
   17NSC     F1 9749   1.705   1.278   3.235
   17NSC     F1 9750   1.788   1.081   3.274
   17NSC     F1 9751   1.755   1.218   3.440
   17NSC    CBT 9752   2.189   1.485   3.437
   17NSC     F1 9753   2.263   1.588   3.477
   17NSC     F1 9754   2.142   1.421   3.544
   17NSC     F1 9755   2.264   1.404   3.362
   18NSC    NBT 9756   5.743   5.601   5.058
   18NSC    SBT 9757   5.588   5.636   5.026
   18NSC    SBT 9758   5.873   5.684   5.010
   18NSC    OBT 9759   5.894   5.684   4.864
   18NSC    CBT 9760   6.008   5.575   5.076
   18NSC    OBT 9761   5.892   5.813   5.080
   18NSC    OBT 9762   5.558   5.641   4.881
   18NSC    OBT 9763   5.498   5.552   5.107
   18NSC     F1 9764   5.997   5.453   5.021
   18NSC     F1 9765   6.126   5.627   5.043
   18NSC     F1 9766   5.998   5.566   5.208
   18NSC    CBT 9767   5.565   5.808   5.091
   18NSC     F1 9768   5.435   5.830   5.108
   18NSC     F1 9769   5.628   5.821   5.208
   18NSC     F1 9770   5.612   5.895   5.002
   19NSC    NBT 9771   3.309   1.446   6.739
   19NSC    SBT 9772   3.436   1.446   6.839
   19NSC    SBT 9773   3.300   1.517   6.593
   19NSC    OBT 9774   3.308   1.664   6.598
   19NSC    CBT 9775   3.122   1.482   6.551
   19NSC    OBT 9776   3.377   1.449   6.488
   19NSC    OBT 9777   3.480   1.581   6.879
   19NSC    OBT 9778   3.415   1.351   6.950
   19NSC     F1 9779   3.043   1.538   6.644
   19NSC     F1 9780   3.094   1.537   6.433
   19NSC     F1 9781   3.102   1.351   6.546
   19NSC    CBT 9782   3.574   1.373   6.738
   19NSC     F1 9783   3.668   1.330   6.821
   19NSC     F1 9784   3.527   1.271   6.667
   19NSC     F1 9785   3.625   1.468   6.660
   20NSC    NBT 9786   6.969   3.915   7.527
   20NSC    SBT 9787   6.843   4.016   7.539
   20NSC    SBT 9788   7.035   3.828   7.646
   20NSC    OBT 9789   7.098   3.909   7.752
   20NSC    CBT 9790   7.178   3.751   7.556
   20NSC    OBT 9791   6.952   3.714   7.690
   20NSC    OBT 9792   6.864   4.126   7.635
   20NSC    OBT 9793   6.797   4.058   7.404
   20NSC     F1 9794   7.257   3.848   7.508
   20NSC     F1 9795   7.247   3.676   7.641
   20NSC     F1 9796   7.132   3.675   7.456
   20NSC    CBT 9797   6.706   3.911   7.606
   20NSC     F1 9798   6.590   3.971   7.581
   20NSC     F1 9799   6.708   3.792   7.548
   20NSC     F1 9800   6.721   3.901   7.739
   21NSC    NBT 9801   1.825   7.089   6.372
   21NSC    SBT 9802   1.705   7.196   6.357
   21NSC    SBT 9803   1.984   7.122   6.377
   21NSC    OBT 9804   2.037   7.179   6.251
   21NSC    CBT 9805   2.053   6.949   6.381
   21NSC    OBT 9806   2.029   7.183   6.502
   21NSC    OBT 9807   1.712   7.278   6.235
   21NSC    OBT 9808   1.574   7.131   6.382
   21NSC     F1 9809   2.013   6.883   6.272
   21NSC     F1 9810   2.186   6.956   6.382
   21NSC     F1 9811   2.010   6.887   6.490
   21NSC    CBT 9812   1.728   7.312   6.500
   21NSC     F1 9813   1.614   7.375   6.522
   21NSC     F1 9814   1.762   7.243   6.609
   21NSC     F1 9815   1.822   7.401   6.469
   22NSC    NBT 9816   1.580   1.395   2.322
   22NSC    SBT 9817   1.486   1.321   2.431
   22NSC    SBT 9818   1.538   1.521   2.228
   22NSC    OBT 9819   1.434   1.488   2.129
   22NSC    CBT 9820   1.693   1.537   2.126
   22NSC    OBT 9821   1.526   1.649   2.299
   22NSC    OBT 9822   1.363   1.263   2.373
   22NSC    OBT 9823   1.566   1.229   2.514
   22NSC     F1 9824   1.716   1.423   2.060
   22NSC     F1 9825   1.677   1.636   2.038
   22NSC     F1 9826   1.796   1.565   2.206
   22NSC    CBT 9827   1.432   1.456   2.546
   22NSC     F1 9828   1.391   1.401   2.659
   22NSC     F1 9829   1.534   1.538   2.570
   22NSC     F1 9830   1.330   1.522   2.491
   23NSC    NBT 9831   3.091   0.846   5.962
   23NSC    SBT 9832   3.095   0.865   5.801
   23NSC    SBT 9833   3.020   0.726   6.044
   23NSC    OBT 9834   2.873   0.724   6.031
   23NSC    CBT 9835   3.049   0.783   6.218
   23NSC    OBT 9836   3.090   0.597   6.034
   23NSC    OBT 9837   2.962   0.875   5.740
   23NSC    OBT 9838   3.190   0.972   5.764
   23NSC     F1 9839   2.993   0.903   6.236
   23NSC     F1 9840   2.994   0.697   6.303
   23NSC     F1 9841   3.180   0.790   6.241
   23NSC    CBT 9842   3.171   0.708   5.738
   23NSC     F1 9843   3.217   0.730   5.616
   23NSC     F1 9844   3.272   0.672   5.818
   23NSC     F1 9845   3.078   0.613   5.734
   24NSC    NBT 9846   4.409   7.633   1.010
   24NSC    SBT 9847   4.547   7.638   0.927
   24NSC    SBT 9848   4.376   7.711   1.149
   24NSC    OBT 9849   4.458   7.666   1.263
   24NSC    CBT 9850   4.206   7.644   1.184
   24NSC    OBT 9851   4.357   7.856   1.133
   24NSC    OBT 9852   4.664   7.592   1.004
   24NSC    OBT 9853   4.530   7.574   0.794
   24NSC     F1 9854   4.212   7.511   1.196
   24NSC     F1 9855   4.163   7.696   1.299
   24NSC     F1 9856   4.123   7.678   1.086
   24NSC    CBT 9857   4.574   7.818   0.891
   24NSC     F1 9858   4.658   7.829   0.790
   24NSC     F1 9859   4.458   7.875   0.859
   24NSC     F1 9860   4.627   7.876   0.999
   25NSC    NBT 9861   0.873   2.460   2.731
   25NSC    SBT 9862   0.912   2.617   2.733
   25NSC    SBT 9863   0.968   2.337   2.685
   25NSC    OBT 9864   1.005   2.340   2.542
   25NSC    CBT 9865   0.847   2.196   2.698
   25NSC    OBT 9866   1.075   2.304   2.781
   25NSC    OBT 9867   0.953   2.670   2.602
   25NSC    OBT 9868   0.809   2.696   2.804
   25NSC     F1 9869   0.743   2.219   2.617
   25NSC     F1 9870   0.908   2.084   2.661
   25NSC     F1 9871   0.806   2.185   2.824
   25NSC    CBT 9872   1.062   2.625   2.843
   25NSC     F1 9873   1.077   2.750   2.885
   25NSC     F1 9874   1.046   2.544   2.947
   25NSC     F1 9875   1.169   2.591   2.772
   26NSC    NBT 9876   4.132   6.755   4.399
   26NSC    SBT 9877   4.204   6.892   4.351
   26NSC    SBT 9878   4.045   6.734   4.535
   26NSC    OBT 9879   4.124   6.748   4.659
   26NSC    CBT 9880   4.010   6.552   4.523
   26NSC    OBT 9881   3.913   6.798   4.532
   26NSC    OBT 9882   4.303   6.944   4.447
   26NSC    OBT 9883   4.252   6.879   4.212
   26NSC     F1 9884   4.126   6.485   4.520
   26NSC     F1 9885   3.940   6.514   4.630
   26NSC     F1 9886   3.940   6.527   4.412
   26NSC    CBT 9887   4.066   7.017   4.343
   26NSC     F1 9888   4.105   7.117   4.266
   26NSC     F1 9889   3.958   6.960   4.292
   26NSC     F1 9890   4.043   7.062   4.466
   27NSC    NBT 9891   1.860   6.027   5.820
   27NSC    SBT 9892   1.704   6.062   5.840
   27NSC    SBT 9893   1.977   6.129   5.771
   27NSC    OBT 9894   1.960   6.177   5.633
   27NSC    CBT 9895   2.121   6.011   5.762
   27NSC    OBT 9896   2.016   6.228   5.872
   27NSC    OBT 9897   1.638   6.112   5.717
   27NSC    OBT 9898   1.634   5.951   5.909
   27NSC     F1 9899   2.093   5.913   5.675
   27NSC     F1 9900   2.228   6.077   5.720
   27NSC     F1 9901   2.144   5.960   5.883
   27NSC    CBT 9902   1.703   6.203   5.961
   27NSC     F1 9903   1.582   6.210   6.016
   27NSC     F1 9904   1.793   6.181   6.056
   27NSC     F1 9905   1.729   6.316   5.896
   28NSC    NBT 9906   1.417   4.437   4.266
   28NSC    SBT 9907   1.391   4.279   4.247
   28NSC    SBT 9908   1.405   4.521   4.405
   28NSC    OBT 9909   1.269   4.527   4.460
   28NSC    CBT 9910   1.437   4.693   4.341
   28NSC    OBT 9911   1.515   4.495   4.500
   28NSC    OBT 9912   1.256   4.235   4.286
   28NSC    OBT 9913   1.435   4.235   4.113
   28NSC     F1 9914   1.344   4.724   4.250
   28NSC     F1 9915   1.428   4.779   4.443
   28NSC     F1 9916   1.558   4.699   4.287
   28NSC    CBT 9917   1.509   4.198   4.365
   28NSC     F1 9918   1.526   4.072   4.328
   28NSC     F1 9919   1.626   4.261   4.363
   28NSC     F1 9920   1.456   4.200   4.488
   29NSC    NBT 9921   5.487   7.034   3.296
   29NSC    SBT 9922   5.455   7.150   3.188
   29NSC    SBT 9923   5.387   6.914   3.341
   29NSC    OBT 9924   5.266   6.960   3.411
   29NSC    CBT 9925   5.490   6.834   3.474
   29NSC    OBT 9926   5.370   6.809   3.239
   29NSC    OBT 9927   5.337   7.232   3.222
   29NSC    OBT 9928   5.578   7.226   3.156
   29NSC     F1 9929   5.515   6.924   3.570
   29NSC     F1 9930   5.422   6.732   3.526
   29NSC     F1 9931   5.604   6.790   3.422
   29NSC    CBT 9932   5.413   7.058   3.032
   29NSC     F1 9933   5.427   7.141   2.930
   29NSC     F1 9934   5.495   6.955   3.018
   29NSC     F1 9935   5.286   7.018   3.039
   30NSC    NBT 9936   3.802   3.092   5.118
   30NSC    SBT 9937   3.890   2.957   5.129
   30NSC    SBT 9938   3.651   3.106   5.060
   30NSC    OBT 9939   3.640   3.075   4.916
   30NSC    CBT 9940   3.629   3.290   5.070
   30NSC    OBT 9941   3.548   3.050   5.148
   30NSC    OBT 9942   3.912   2.889   4.999
   30NSC    OBT 9943   4.012   2.980   5.209
   30NSC     F1 9944   3.723   3.350   4.995
   30NSC     F1 9945   3.509   3.322   5.022
   30NSC     F1 9946   3.639   3.330   5.196
   30NSC    CBT 9947   3.785   2.842   5.231
   30NSC     F1 9948   3.863   2.747   5.281
   30NSC     F1 9949   3.729   2.910   5.330
   30NSC     F1 9950   3.693   2.786   5.153
   31NSC    NBT 9951   1.982   3.168   7.730
   31NSC    SBT 9952   1.875   3.284   7.696
   31NSC    SBT 9953   2.144   3.182   7.729
   31NSC    OBT 9954   2.200   3.209   7.595
   31NSC    CBT 9955   2.192   3.006   7.766
   31NSC    OBT 9956   2.198   3.260   7.841
   31NSC    OBT 9957   1.889   3.340   7.561
   31NSC    OBT 9958   1.738   3.240   7.732
   31NSC     F1 9959   2.143   2.926   7.670
   31NSC     F1 9960   2.325   2.997   7.766
   31NSC     F1 9961   2.145   2.971   7.884
   31NSC    CBT 9962   1.914   3.420   7.815
   31NSC     F1 9963   1.809   3.500   7.825
   31NSC     F1 9964   1.943   3.369   7.934
   31NSC     F1 9965   2.018   3.490   7.768
   32NSC    NBT 9966   5.755   7.394   4.445
   32NSC    SBT 9967   5.715   7.548   4.418
   32NSC    SBT 9968   5.672   7.287   4.535
   32NSC    OBT 9969   5.666   7.321   4.678
   32NSC    CBT 9970   5.787   7.142   4.527
   32NSC    OBT 9971   5.547   7.239   4.473
   32NSC    OBT 9972   5.703   7.629   4.540
   32NSC    OBT 9973   5.800   7.606   4.312
   32NSC     F1 9974   5.906   7.176   4.578
   32NSC     F1 9975   5.737   7.042   4.599
   32NSC     F1 9976   5.801   7.103   4.400
   32NSC    CBT 9977   5.545   7.539   4.343
   32NSC     F1 9978   5.521   7.653   4.279
   32NSC     F1 9979   5.539   7.438   4.257
   32NSC     F1 9980   5.455   7.525   4.441
   33NSC    NBT 9981   1.221   4.824   5.566
   33NSC    SBT 9982   1.172   4.691   5.645
   33NSC    SBT 9983   1.129   4.948   5.518
   33NSC    OBT 9984   1.029   4.912   5.416
   33NSC    CBT 9985   1.255   5.049   5.426
   33NSC    OBT 9986   1.084   5.035   5.628
   33NSC    OBT 9987   1.069   4.614   5.574
   33NSC    OBT 9988   1.288   4.614   5.694
   33NSC     F1 9989   1.305   4.976   5.326
   33NSC     F1 9990   1.196   5.156   5.375
   33NSC     F1 9991   1.352   5.086   5.509
   33NSC    CBT 9992   1.091   4.757   5.799
   33NSC     F1 9993   1.086   4.660   5.889
   33NSC     F1 9994   1.163   4.858   5.848
   33NSC     F1 9995   0.967   4.796   5.770
   34NSC    NBT 9996   0.295   3.562   0.866
   34NSC    SBT 9997   0.374   3.423   0.840
   34NSC    SBT 9998   0.141   3.577   0.914
   34NSC    OBT 9999   0.042   3.527   0.817
   34NSC    CBT10000   0.123   3.762   0.907
   34NSC    OBT10001   0.118   3.543   1.056
   34NSC    OBT10002   0.311   3.336   0.739
   34NSC    OBT10003   0.518   3.449   0.821
   34NSC     F110004   0.146   3.804   0.782
   34NSC     F110005  -0.001   3.796   0.941
   34NSC     F110006   0.210   3.819   0.991
   34NSC    CBT10007   0.362   3.332   1.002
   34NSC     F110008   0.457   3.240   1.006
   34NSC     F110009   0.379   3.418   1.102
   34NSC     F110010   0.243   3.273   1.009
   35NSC    NBT10011   1.517   2.917   7.324
   35NSC    SBT10012   1.548   3.074   7.342
   35NSC    SBT10013   1.611   2.808   7.249
   35NSC    OBT10014   1.627   2.832   7.104
   35NSC    CBT10015   1.501   2.658   7.258
   35NSC    OBT10016   1.732   2.771   7.324
   35NSC    OBT10017   1.566   3.147   7.216
   35NSC    OBT10018   1.452   3.135   7.437
   35NSC     F110019   1.385   2.684   7.196
   35NSC     F110020   1.562   2.556   7.198
   35NSC     F110021   1.479   2.627   7.386
   35NSC    CBT10022   1.711   3.079   7.431
   35NSC     F110023   1.725   3.198   7.488
   35NSC     F110024   1.714   2.984   7.524
   35NSC     F110025   1.809   3.062   7.342
   36NSC    NBT10026   2.155   4.522   5.461
   36NSC    SBT10027   2.169   4.644   5.566
   36NSC    SBT10028   2.180   4.528   5.301
   36NSC    OBT10029   2.083   4.614   5.229
   36NSC    CBT10030   2.132   4.355   5.254
   36NSC    OBT10031   2.321   4.540   5.262
   36NSC    OBT10032   2.081   4.758   5.536
   36NSC    OBT10033   2.164   4.595   5.705
   36NSC     F110034   2.005   4.333   5.290
   36NSC     F110035   2.143   4.341   5.122
   36NSC     F110036   2.213   4.268   5.315
   36NSC    CBT10037   2.344   4.705   5.543
   36NSC     F110038   2.378   4.774   5.650
   36NSC     F110039   2.425   4.601   5.528
   36NSC     F110040   2.348   4.785   5.436
   37NSC    NBT10041   4.793   4.492   2.940
   37NSC    SBT10042   4.854   4.629   3.002
   37NSC    SBT10043   4.755   4.465   2.785
   37NSC    OBT10044   4.644   4.548   2.735
   37NSC    CBT10045   4.682   4.295   2.799
   37NSC    OBT10046   4.872   4.448   2.696
   37NSC    OBT10047   4.769   4.747   2.981
   37NSC    OBT10048   4.899   4.607   3.141
   37NSC     F110049   4.577   4.298   2.882
   37NSC     F110050   4.641   4.255   2.679
   37NSC     F110051   4.774   4.210   2.845
   37NSC    CBT10052   5.010   4.658   2.905
   37NSC     F110053   5.088   4.740   2.974
   37NSC     F110054   5.073   4.542   2.887
   37NSC     F110055   4.979   4.714   2.789
   38NSC    NBT10056   5.600   2.347   5.620
   38NSC    SBT10057   5.447   2.350   5.568
   38NSC    SBT10058   5.669   2.232   5.711
   38NSC    OBT10059   5.613   2.222   5.847
   38NSC    CBT10060   5.837   2.307   5.737
   38NSC    OBT10061   5.695   2.106   5.640
   38NSC    OBT10062   5.347   2.347   5.677
   38NSC    OBT10063   5.428   2.457   5.468
   38NSC     F110064   5.824   2.425   5.798
   38NSC     F110065   5.910   2.226   5.814
   38NSC     F110066   5.897   2.322   5.619
   38NSC    CBT10067   5.426   2.191   5.474
   38NSC     F110068   5.322   2.203   5.394
   38NSC     F110069   5.536   2.168   5.402
   38NSC     F110070   5.404   2.092   5.561
   39NSC    NBT10071   4.025   4.921   7.497
   39NSC    SBT10072   3.933   4.788   7.492
   39NSC    SBT10073   3.981   5.071   7.453
   39NSC    OBT10074   3.952   5.085   7.309
   39NSC    CBT10075   4.142   5.160   7.477
   39NSC    OBT10076   3.888   5.136   7.547
   39NSC    OBT10077   3.882   4.756   7.357
   39NSC    OBT10078   3.999   4.676   7.562
   39NSC     F110079   4.235   5.105   7.398
   39NSC     F110080   4.127   5.288   7.442
   39NSC     F110081   4.179   5.153   7.604
   39NSC    CBT10082   3.784   4.830   7.595
   39NSC     F110083   3.725   4.717   7.632
   39NSC     F110084   3.823   4.897   7.703
   39NSC     F110085   3.699   4.902   7.522
   40NSC    NBT10086   1.377   2.917   3.402
   40NSC    SBT10087   1.228   2.855   3.403
   40NSC    SBT10088   1.516   2.838   3.432
   40NSC    OBT10089   1.527   2.787   3.570
   40NSC    CBT10090   1.636   2.980   3.426
   40NSC    OBT10091   1.558   2.748   3.323
   40NSC    OBT10092   1.190   2.793   3.531
   40NSC    OBT10093   1.131   2.951   3.347
   40NSC     F110094   1.603   3.070   3.519
   40NSC     F110095   1.759   2.934   3.451
   40NSC     F110096   1.633   3.036   3.305
   40NSC    CBT10097   1.236   2.717   3.277
   40NSC     F110098   1.113   2.688   3.239
   40NSC     F110099   1.307   2.757   3.172
   40NSC     F110100   1.291   2.610   3.335
   41NSC    NBT10101   3.897   4.059   4.988
   41NSC    SBT10102   3.997   3.933   4.971
   41NSC    SBT10103   3.912   4.205   4.917
   41NSC    OBT10104   4.031   4.280   4.960
   41NSC    CBT10105   3.769   4.293   4.997
   41NSC    OBT10106   3.881   4.205   4.774
   41NSC    OBT10107   4.136   3.961   5.010
   41NSC    OBT10108   3.938   3.811   5.031
   41NSC     F110109   3.787   4.295   5.130
   41NSC     F110110   3.766   4.419   4.953
   41NSC     F110111   3.655   4.232   4.966
   41NSC    CBT10112   3.999   3.901   4.788
   41NSC     F110113   4.042   3.777   4.768
   41NSC     F110114   3.876   3.914   4.739
   41NSC     F110115   4.083   3.986   4.730
   42NSC    NBT10116   2.298   3.731   6.581
   42NSC    SBT10117   2.313   3.833   6.456
   42NSC    SBT10118   2.297   3.569   6.573
   42NSC    OBT10119   2.181   3.513   6.500
   42NSC    CBT10120   2.263   3.528   6.751
   42NSC    OBT10121   2.428   3.509   6.545
   42NSC    OBT10122   2.209   3.819   6.353
   42NSC    OBT10123   2.335   3.972   6.505
   42NSC     F110124   2.146   3.583   6.787
   42NSC     F110125   2.255   3.396   6.765
   42NSC     F110126   2.361   3.576   6.827
   42NSC    CBT10127   2.474   3.785   6.376
   42NSC     F110128   2.516   3.887   6.302
   42NSC     F110129   2.564   3.758   6.470
   42NSC     F110130   2.453   3.680   6.297
   43NSC    NBT10131   1.680   0.400   6.600
   43NSC    SBT10132   1.781   0.286   6.654
   43NSC    SBT10133   1.631   0.533   6.681
   43NSC    OBT10134   1.550   0.503   6.801
   43NSC    CBT10135   1.510   0.603   6.560
   43NSC    OBT10136   1.735   0.636   6.695
   43NSC    OBT10137   1.736   0.219   6.777
   43NSC    OBT10138   1.820   0.196   6.543
   43NSC     F110139   1.413   0.513   6.537
   43NSC     F110140   1.455   0.713   6.611
   43NSC     F110141   1.572   0.632   6.446
   43NSC    CBT10142   1.936   0.379   6.698
   43NSC     F110143   2.037   0.293   6.702
   43NSC     F110144   1.960   0.472   6.606
   43NSC     F110145   1.921   0.434   6.819
   44NSC    NBT10146   4.404   3.331   7.103
   44NSC    SBT10147   4.456   3.309   6.951
   44NSC    SBT10148   4.273   3.266   7.171
   44NSC    OBT10149   4.146   3.310   7.111
   44NSC    CBT10150   4.277   3.349   7.337
   44NSC    OBT10151   4.285   3.122   7.201
   44NSC    OBT10152   4.358   3.349   6.849
   44NSC    OBT10153   4.592   3.365   6.934
   44NSC     F110154   4.270   3.482   7.321
   44NSC     F110155   4.172   3.309   7.409
   44NSC     F110156   4.389   3.316   7.401
   44NSC    CBT10157   4.477   3.125   6.936
   44NSC     F110158   4.557   3.100   6.834
   44NSC     F110159   4.531   3.077   7.048
   44NSC     F110160   4.358   3.070   6.913
   45NSC    NBT10161   4.354   6.857   5.537
   45NSC    SBT10162   4.408   6.755   5.650
   45NSC    SBT10163   4.256   6.984   5.560
   45NSC    OBT10164   4.120   6.947   5.605
   45NSC    CBT10165   4.233   7.039   5.384
   45NSC    OBT10166   4.320   7.098   5.627
   45NSC    OBT10167   4.300   6.685   5.723
   45NSC    OBT10168   4.514   6.668   5.596
   45NSC     F110169   4.178   6.939   5.313
   45NSC     F110170   4.150   7.144   5.381
   45NSC     F110171   4.350   7.074   5.332
   45NSC    CBT10172   4.494   6.864   5.774
   45NSC     F110173   4.576   6.789   5.846
   45NSC     F110174   4.563   6.958   5.710
   45NSC     F110175   4.402   6.918   5.854
   46NSC    NBT10176   1.188   3.296   1.138
   46NSC    SBT10177   1.254   3.158   1.193
   46NSC    SBT10178   1.263   3.412   1.053
   46NSC    OBT10179   1.370   3.481   1.128
   46NSC    CBT10180   1.127   3.537   1.041
   46NSC    OBT10181   1.293   3.375   0.913
   46NSC    OBT10182   1.368   3.179   1.283
   46NSC    OBT10183   1.148   3.067   1.243
   46NSC     F110184   1.089   3.574   1.164
   46NSC     F110185   1.171   3.644   0.975
   46NSC     F110186   1.023   3.484   0.975
   46NSC    CBT10187   1.320   3.075   1.040
   46NSC     F110188   1.337   2.946   1.067
   46NSC     F110189   1.234   3.089   0.940
   46NSC     F110190   1.438   3.129   1.010
   47NSC    NBT10191   3.918   1.231   7.585
   47NSC    SBT10192   3.984   1.315   7.707
   47NSC    SBT10193   3.953   1.246   7.427
   47NSC    OBT10194   3.917   1.377   7.370
   47NSC    CBT10195   3.829   1.129   7.355
   47NSC    OBT10196   4.084   1.191   7.389
   47NSC    OBT10197   3.966   1.461   7.696
   47NSC    OBT10198   3.945   1.256   7.837
   47NSC     F110199   3.705   1.169   7.388
   47NSC     F110200   3.841   1.129   7.222
   47NSC     F110201   3.852   1.006   7.401
   47NSC    CBT10202   4.166   1.282   7.692
   47NSC     F110203   4.224   1.309   7.808
   47NSC     F110204   4.186   1.154   7.661
   47NSC     F110205   4.217   1.362   7.599
   48NSC    NBT10206   4.926   1.867   2.668
   48NSC    SBT10207   4.776   1.922   2.641
   48NSC    SBT10208   5.000   1.745   2.591
   48NSC    OBT10209   4.937   1.613   2.614
   48NSC    CBT10210   5.158   1.737   2.687
   48NSC    OBT10211   5.040   1.776   2.454
   48NSC    OBT10212   4.671   1.820   2.659
   48NSC    OBT10213   4.754   2.049   2.714
   48NSC     F110214   5.131   1.712   2.816
   48NSC     F110215   5.233   1.637   2.639
   48NSC     F110216   5.224   1.852   2.675
   48NSC    CBT10217   4.776   1.968   2.461
   48NSC     F110218   4.675   2.051   2.439
   48NSC     F110219   4.890   2.027   2.430
   48NSC     F110220   4.757   1.857   2.389
   49NSC    NBT10221   3.055   1.666   5.303
   49NSC    SBT10222   3.143   1.789   5.245
   49NSC    SBT10223   3.046   1.616   5.457
   49NSC    OBT10224   3.173   1.563   5.510
   49NSC    CBT10225   2.938   1.467   5.438
   49NSC    OBT10226   2.970   1.707   5.545
   49NSC    OBT10227   3.287   1.775   5.271
   49NSC    OBT10228   3.105   1.818   5.106
   49NSC     F110229   2.997   1.379   5.355
   49NSC     F110230   2.922   1.409   5.557
   49NSC     F110231   2.820   1.503   5.389
   49NSC    CBT10232   3.085   1.936   5.343
   49NSC     F110233   3.118   2.046   5.277
   49NSC     F110234   2.953   1.931   5.358
   49NSC     F110235   3.147   1.936   5.461
   50NSC    NBT10236   0.617   2.868   5.996
   50NSC    SBT10237   0.670   2.846   6.147
   50NSC    SBT10238   0.533   2.995   5.940
   50NSC    OBT10239   0.399   3.009   5.999
   50NSC    CBT10240   0.502   2.940   5.766
   50NSC    OBT10241   0.613   3.119   5.927
   50NSC    OBT10242   0.562   2.845   6.248
   50NSC    OBT10243   0.763   2.731   6.154
   50NSC     F110244   0.433   2.825   5.768
   50NSC     F110245   0.430   3.032   5.703
   50NSC     F110246   0.618   2.923   5.703
   50NSC    CBT10247   0.775   2.995   6.183
   50NSC     F110248   0.855   2.968   6.284
   50NSC     F110249   0.847   3.025   6.075
   50NSC     F110250   0.695   3.097   6.216
   51NSC    NBT10251   0.569   4.139   3.168
   51NSC    SBT10252   0.462   4.152   3.288
   51NSC    SBT10253   0.634   4.260   3.082
   51NSC    OBT10254   0.536   4.334   3.000
   51NSC    CBT10255   0.733   4.164   2.959
   51NSC    OBT10256   0.732   4.340   3.156
   51NSC    OBT10257   0.336   4.218   3.249
   51NSC    OBT10258   0.446   4.022   3.358
   51NSC     F110259   0.652   4.084   2.888
   51NSC     F110260   0.793   4.249   2.875
   51NSC     F110261   0.825   4.091   3.022
   51NSC    CBT10262   0.545   4.263   3.412
   51NSC     F110263   0.486   4.245   3.530
   51NSC     F110264   0.673   4.231   3.421
   51NSC     F110265   0.529   4.389   3.373
   52NSC    NBT10266   4.800   5.331   1.268
   52NSC    SBT10267   4.774   5.199   1.178
   52NSC    SBT10268   4.705   5.386   1.388
   52NSC    OBT10269   4.572   5.431   1.343
   52NSC    CBT10270   4.794   5.544   1.430
   52NSC    OBT10271   4.710   5.306   1.511
   52NSC    OBT10272   4.647   5.201   1.104
   52NSC    OBT10273   4.894   5.168   1.097
   52NSC     F110274   4.798   5.623   1.321
   52NSC     F110275   4.728   5.607   1.527
   52NSC     F110276   4.918   5.516   1.471
   52NSC    CBT10277   4.762   5.061   1.301
   52NSC     F110278   4.784   4.946   1.238
   52NSC     F110279   4.853   5.077   1.396
   52NSC     F110280   4.639   5.060   1.353
   53NSC    NBT10281   0.798   6.365   1.015
   53NSC    SBT10282   0.652   6.433   1.012
   53NSC    SBT10283   0.937   6.431   0.962
   53NSC    OBT10284   0.940   6.455   0.817
   53NSC    CBT10285   1.053   6.288   0.988
   53NSC    OBT10286   0.989   6.538   1.048
   53NSC    OBT10287   0.606   6.471   0.877
   53NSC    OBT10288   0.556   6.353   1.091
   53NSC     F110289   1.011   6.184   0.916
   53NSC     F110290   1.174   6.323   0.946
   53NSC     F110291   1.057   6.257   1.117
   53NSC    CBT10292   0.672   6.592   1.108
   53NSC     F110293   0.553   6.633   1.147
   53NSC     F110294   0.750   6.570   1.214
   53NSC     F110295   0.726   6.684   1.027
   54NSC    NBT10296   4.984   1.425   6.838
   54NSC    SBT10297   4.836   1.467   6.789
   54NSC    SBT10298   5.123   1.501   6.803
   54NSC    OBT10299   5.159   1.497   6.660
   54NSC    CBT10300   5.245   1.386   6.883
   54NSC    OBT10301   5.141   1.629   6.873
   54NSC    OBT10302   4.820   1.472   6.643
   54NSC    OBT10303   4.733   1.389   6.862
   54NSC     F110304   5.233   1.264   6.829
   54NSC     F110305   5.368   1.431   6.862
   54NSC     F110306   5.221   1.380   7.014
   54NSC    CBT10307   4.816   1.642   6.850
   54NSC     F110308   4.686   1.670   6.854
   54NSC     F110309   4.867   1.653   6.972
   54NSC     F110310   4.876   1.724   6.765
   55NSC    NBT10311   0.558   5.566   4.432
   55NSC    SBT10312   0.507   5.679   4.328
   55NSC    SBT10313   0.514   5.410   4.434
   55NSC    OBT10314   0.372   5.388   4.465
   55NSC    CBT10315   0.604   5.353   4.586
   55NSC    OBT10316   0.572   5.330   4.324
   55NSC    OBT10317   0.361   5.699   4.328
   55NSC    OBT10318   0.588   5.803   4.342
   55NSC     F110319   0.561   5.424   4.692
   55NSC     F110320   0.577   5.224   4.607
   55NSC     F110321   0.735   5.369   4.570
   55NSC    CBT10322   0.551   5.612   4.160
   55NSC     F110323   0.553   5.712   4.074
   55NSC     F110324   0.671   5.555   4.165
   55NSC     F110325   0.458   5.524   4.123
   56NSC    NBT10326   3.338   4.565   2.513
   56NSC    SBT10327   3.214   4.461   2.507
   56NSC    SBT10328   3.476   4.548   2.597
   56NSC    OBT10329   3.456   4.547   2.743
   56NSC    CBT10330   3.556   4.711   2.561
   56NSC    OBT10331   3.568   4.448   2.541
   56NSC    OBT10332   3.155   4.432   2.639
   56NSC    OBT10333   3.119   4.499   2.401
   56NSC     F110334   3.477   4.810   2.605
   56NSC     F110335   3.672   4.718   2.626
   56NSC     F110336   3.577   4.724   2.431
   56NSC    CBT10337   3.291   4.302   2.448
   56NSC     F110338   3.195   4.224   2.400
   56NSC     F110339   3.379   4.328   2.352
   56NSC     F110340   3.349   4.241   2.551
   57NSC    NBT10341   3.474   7.125   4.340
   57NSC    SBT10342   3.458   6.993   4.432
   57NSC    SBT10343   3.353   7.216   4.279
   57NSC    OBT10344   3.270   7.145   4.180
   57NSC    CBT10345   3.452   7.337   4.178
   57NSC    OBT10346   3.283   7.298   4.379
   57NSC    OBT10347   3.382   6.884   4.367
   57NSC    OBT10348   3.589   6.953   4.488
   57NSC     F110349   3.523   7.270   4.086
   57NSC     F110350   3.368   7.420   4.116
   57NSC     F110351   3.533   7.406   4.258
   57NSC    CBT10352   3.358   7.049   4.577
   57NSC     F110353   3.375   6.963   4.676
   57NSC     F110354   3.398   7.170   4.616
   57NSC     F110355   3.229   7.051   4.543
   58NSC    NBT10356   5.381   5.287   5.454
   58NSC    SBT10357   5.238   5.223   5.496
   58NSC    SBT10358   5.404   5.428   5.376
   58NSC    OBT10359   5.352   5.429   5.238
   58NSC    CBT10360   5.589   5.423   5.355
   58NSC    OBT10361   5.379   5.547   5.458
   58NSC    OBT10362   5.148   5.199   5.382
   58NSC    OBT10363   5.258   5.108   5.586
   58NSC     F110364   5.622   5.314   5.284
   58NSC     F110365   5.628   5.531   5.288
   58NSC     F110366   5.647   5.420   5.474
   58NSC    CBT10367   5.158   5.354   5.601
   58NSC     F110368   5.063   5.297   5.673
   58NSC     F110369   5.249   5.409   5.681
   58NSC     F110370   5.103   5.446   5.521
   59NSC    NBT10371   3.875   5.951   5.937
   59NSC    SBT10372   4.023   6.015   5.952
   59NSC    SBT10373   3.832   5.827   5.843
   59NSC    OBT10374   3.846   5.853   5.699
   59NSC    CBT10375   3.649   5.825   5.872
   59NSC    OBT10376   3.879   5.696   5.891
   59NSC    OBT10377   4.080   6.064   5.826
   59NSC    OBT10378   4.028   6.110   6.066
   59NSC     F110379   3.597   5.943   5.835
   59NSC     F110380   3.594   5.729   5.798
   59NSC     F110381   3.624   5.803   6.001
   59NSC    CBT10382   4.129   5.872   6.006
   59NSC     F110383   4.240   5.920   6.061
   59NSC     F110384   4.063   5.798   6.095
   59NSC     F110385   4.162   5.800   5.898
   60NSC    NBT10386   0.404   3.660   5.835
   60NSC    SBT10387   0.472   3.680   5.981
   60NSC    SBT10388   0.434   3.540   5.730
   60NSC    OBT10389   0.572   3.540   5.677
   60NSC    CBT10390   0.330   3.595   5.587
   60NSC    OBT10391   0.378   3.410   5.769
   60NSC    OBT10392   0.619   3.692   5.977
   60NSC    OBT10393   0.402   3.785   6.056
   60NSC     F110394   0.371   3.716   5.546
   60NSC     F110395   0.344   3.509   5.486
   60NSC     F110396   0.202   3.601   5.624
   60NSC    CBT10397   0.434   3.522   6.071
   60NSC     F110398   0.447   3.544   6.201
   60NSC     F110399   0.310   3.484   6.044
   60NSC     F110400   0.522   3.429   6.034
   61NSC    NBT10401   6.045   2.241   7.663
   61NSC    SBT10402   6.118   2.344   7.561
   61NSC    SBT10403   5.973   2.101   7.625
   61NSC    OBT10404   5.854   2.117   7.540
   61NSC    CBT10405   5.906   2.052   7.791
   61NSC    OBT10406   6.066   1.993   7.589
   61NSC    OBT10407   6.030   2.395   7.455
   61NSC    OBT10408   6.193   2.447   7.636
   61NSC     F110409   5.822   2.148   7.834
   61NSC     F110410   5.838   1.938   7.778
   61NSC     F110411   6.006   2.037   7.877
   61NSC    CBT10412   6.248   2.241   7.477
   61NSC     F110413   6.339   2.322   7.425
   61NSC     F110414   6.306   2.161   7.566
   61NSC     F110415   6.191   2.171   7.379
   62NSC    NBT10416   2.003   3.124   3.123
   62NSC    SBT10417   2.066   3.019   3.229
   62NSC    SBT10418   1.959   3.093   2.970
   62NSC    OBT10419   2.072   3.057   2.882
   62NSC    CBT10420   1.910   3.263   2.915
   62NSC    OBT10421   1.837   3.012   2.958
   62NSC    OBT10422   2.192   2.958   3.184
   62NSC    OBT10423   2.069   3.078   3.365
   62NSC     F110424   2.015   3.346   2.926
   62NSC     F110425   1.873   3.258   2.787
   62NSC     F110426   1.809   3.307   2.989
   62NSC    CBT10427   1.941   2.882   3.239
   62NSC     F110428   1.962   2.815   3.351
   62NSC     F110429   1.819   2.934   3.240
   62NSC     F110430   1.959   2.801   3.135
   63NSC    NBT10431   2.726   5.676   5.545
   63NSC    SBT10432   2.677   5.521   5.542
   63NSC    SBT10433   2.645   5.802   5.607
   63NSC    OBT10434   2.519   5.832   5.536
   63NSC    CBT10435   2.759   5.940   5.560
   63NSC    OBT10436   2.641   5.805   5.754
   63NSC    OBT10437   2.550   5.500   5.472
   63NSC    OBT10438   2.788   5.433   5.501
   63NSC     F110439   2.773   5.943   5.427
   63NSC     F110440   2.706   6.056   5.601
   63NSC     F110441   2.877   5.922   5.618
   63NSC    CBT10442   2.646   5.479   5.721
   63NSC     F110443   2.648   5.348   5.734
   63NSC     F110444   2.742   5.533   5.796
   63NSC     F110445   2.526   5.526   5.756
   64NSC    NBT10446   4.212   6.397   0.184
   64NSC    SBT10447   4.335   6.306   0.238
   64NSC    SBT10448   4.183   6.552   0.219
   64NSC    OBT10449   4.151   6.576   0.361
   64NSC    CBT10450   4.022   6.577   0.130
   64NSC    OBT10451   4.276   6.647   0.155
   64NSC    OBT10452   4.340   6.295   0.385
   64NSC    OBT10453   4.341   6.178   0.164
   64NSC     F110454   3.931   6.491   0.179
   64NSC     F110455   3.980   6.701   0.151
   64NSC     F110456   4.039   6.556   0.000
   64NSC    CBT10457   4.487   6.399   0.187
   64NSC     F110458   4.590   6.316   0.188
   64NSC     F110459   4.471   6.448   0.064
   64NSC     F110460   4.510   6.497   0.274
   65NSC    NBT10461   7.386   4.708   5.863
   65NSC    SBT10462   7.478   4.822   5.794
   65NSC    SBT10463   7.408   4.547   5.856
   65NSC    OBT10464   7.395   4.491   5.720
   65NSC    CBT10465   7.256   4.489   5.946
   65NSC    OBT10466   7.521   4.499   5.937
   65NSC    OBT10467   7.490   4.809   5.648
   65NSC    OBT10468   7.440   4.956   5.843
   65NSC     F110469   7.147   4.533   5.881
   65NSC     F110470   7.256   4.356   5.948
   65NSC     F110471   7.258   4.536   6.070
   65NSC    CBT10472   7.648   4.791   5.864
   65NSC     F110473   7.720   4.901   5.849
   65NSC     F110474   7.638   4.762   5.993
   65NSC     F110475   7.705   4.691   5.796
   66NSC    NBT10476   3.998   1.857   5.090
   66NSC    SBT10477   3.892   1.924   4.988
   66NSC    SBT10478   3.996   1.867   5.252
   66NSC    OBT10479   4.017   2.004   5.304
   66NSC    CBT10480   4.154   1.778   5.292
   66NSC    OBT10481   3.890   1.787   5.316
   66NSC    OBT10482   3.882   2.071   5.000
   66NSC    OBT10483   3.912   1.873   4.851
   66NSC     F110484   4.257   1.841   5.234
   66NSC     F110485   4.172   1.778   5.424
   66NSC     F110486   4.147   1.653   5.248
   66NSC    CBT10487   3.727   1.856   5.042
   66NSC     F110488   3.642   1.869   4.941
   66NSC     F110489   3.740   1.727   5.072
   66NSC     F110490   3.683   1.926   5.146
   67NSC    NBT10491   3.337   5.118   6.748
   67NSC    SBT10492   3.338   5.279   6.730
   67NSC    SBT10493   3.217   5.029   6.811
   67NSC    OBT10494   3.192   5.055   6.954
   67NSC    CBT10495   3.297   4.861   6.809
   67NSC    OBT10496   3.099   5.016   6.724
   67NSC    OBT10497   3.321   5.353   6.856
   67NSC    OBT10498   3.453   5.321   6.647
   67NSC     F110499   3.409   4.864   6.883
   67NSC     F110500   3.213   4.772   6.861
   67NSC     F110501   3.326   4.827   6.684
   67NSC    CBT10502   3.188   5.315   6.627
   67NSC     F110503   3.203   5.434   6.571
   67NSC     F110504   3.176   5.223   6.532
   67NSC     F110505   3.080   5.316   6.706
   68NSC    NBT10506   1.908   4.877   2.482
   68NSC    SBT10507   2.034   4.979   2.487
   68NSC    SBT10508   1.877   4.768   2.366
   68NSC    OBT10509   1.848   4.828   2.234
   68NSC    CBT10510   1.713   4.704   2.425
   68NSC    OBT10511   1.966   4.651   2.368
   68NSC    OBT10512   2.044   5.069   2.371
   68NSC    OBT10513   2.042   5.045   2.619
   68NSC     F110514   1.625   4.806   2.431
   68NSC     F110515   1.668   4.613   2.339
   68NSC     F110516   1.727   4.649   2.545
   68NSC    CBT10517   2.183   4.867   2.480
   68NSC     F110518   2.288   4.934   2.526
   68NSC     F110519   2.162   4.760   2.556
   68NSC     F110520   2.205   4.833   2.353
   69NSC    NBT10521   4.612   0.735   6.819
   69NSC    SBT10522   4.515   0.842   6.893
   69NSC    SBT10523   4.691   0.612   6.889
   69NSC    OBT10524   4.795   0.655   6.984
   69NSC    CBT10525   4.786   0.548   6.743
   69NSC    OBT10526   4.605   0.500   6.930
   69NSC    OBT10527   4.582   0.919   7.000
   69NSC    OBT10528   4.441   0.923   6.794
   69NSC     F110529   4.865   0.645   6.695
   69NSC     F110530   4.862   0.446   6.782
   69NSC     F110531   4.701   0.508   6.649
   69NSC    CBT10532   4.386   0.738   6.976
   69NSC     F110533   4.281   0.814   7.003
   69NSC     F110534   4.349   0.638   6.895
   69NSC     F110535   4.435   0.690   7.091
   70NSC    NBT10536   2.014   3.793   7.033
   70NSC    SBT10537   1.890   3.818   6.933
   70NSC    SBT10538   2.012   3.707   7.171
   70NSC    OBT10539   1.927   3.765   7.276
   70NSC    CBT10540   2.185   3.737   7.230
   70NSC    OBT10541   2.004   3.562   7.150
   70NSC    OBT10542   1.774   3.884   6.997
   70NSC    OBT10543   1.936   3.880   6.807
   70NSC     F110544   2.204   3.869   7.248
   70NSC     F110545   2.202   3.675   7.347
   70NSC     F110546   2.272   3.690   7.142
   70NSC    CBT10547   1.834   3.648   6.885
   70NSC     F110548   1.762   3.656   6.774
   70NSC     F110549   1.939   3.570   6.865
   70NSC     F110550   1.756   3.599   6.983
   71NSC    NBT10551   2.577   7.188   5.992
   71NSC    SBT10552   2.675   7.075   6.055
   71NSC    SBT10553   2.472   7.167   5.870
   71NSC    OBT10554   2.536   7.135   5.741
   71NSC    CBT10555   2.412   7.341   5.849
   71NSC    OBT10556   2.352   7.090   5.906
   71NSC    OBT10557   2.768   7.015   5.958
   71NSC    OBT10558   2.737   7.125   6.180
   71NSC     F110559   2.515   7.421   5.819
   71NSC     F110560   2.324   7.345   5.749
   71NSC     F110561   2.353   7.382   5.961
   71NSC    CBT10562   2.560   6.940   6.110
   71NSC     F110563   2.622   6.865   6.200
   71NSC     F110564   2.451   6.994   6.165
   71NSC     F110565   2.528   6.865   6.005
   72NSC    NBT10566   2.416   4.074   7.671
   72NSC    SBT10567   2.398   3.944   7.577
   72NSC    SBT10568   2.310   4.196   7.689
   72NSC    OBT10569   2.289   4.275   7.566
   72NSC    CBT10570   2.407   4.308   7.800
   72NSC    OBT10571   2.190   4.160   7.767
   72NSC    OBT10572   2.380   3.976   7.434
   72NSC    OBT10573   2.504   3.845   7.606
   72NSC     F110574   2.521   4.343   7.739
   72NSC     F110575   2.336   4.418   7.824
   72NSC     F110576   2.433   4.245   7.915
   72NSC    CBT10577   2.240   3.866   7.635
   72NSC     F110578   2.239   3.739   7.595
   72NSC     F110579   2.234   3.871   7.767
   72NSC     F110580   2.137   3.930   7.579
   73NSC    NBT10581   7.434   0.275   4.609
   73NSC    SBT10582   7.494   0.424   4.590
   73NSC    SBT10583   7.286   0.236   4.664
   73NSC    OBT10584   7.264   0.274   4.805
   73NSC    CBT10585   7.301   0.051   4.667
   73NSC    OBT10586   7.178   0.264   4.569
   73NSC    OBT10587   7.497   0.503   4.715
   73NSC    OBT10588   7.621   0.420   4.515
   73NSC     F110589   7.402   0.016   4.749
   73NSC     F110590   7.187  -0.001   4.714
   73NSC     F110591   7.323   0.006   4.544
   73NSC    CBT10592   7.373   0.509   4.477
   73NSC     F110593   7.433   0.614   4.422
   73NSC     F110594   7.335   0.424   4.381
   73NSC     F110595   7.269   0.551   4.549
   74NSC    NBT10596   1.531   1.215   4.931
   74NSC    SBT10597   1.378   1.254   4.898
   74NSC    SBT10598   1.582   1.120   5.053
   74NSC    OBT10599   1.557   1.177   5.187
   74NSC    CBT10600   1.766   1.135   5.030
   74NSC    OBT10601   1.553   0.977   5.034
   74NSC    OBT10602   1.308   1.324   5.008
   74NSC    OBT10603   1.369   1.321   4.766
   74NSC     F110604   1.802   1.264   5.041
   74NSC     F110605   1.827   1.065   5.125
   74NSC     F110606   1.800   1.088   4.911
   74NSC    CBT10607   1.292   1.091   4.875
   74NSC     F110608   1.180   1.112   4.807
   74NSC     F110609   1.370   1.008   4.808
   74NSC     F110610   1.261   1.042   4.995
   75NSC    NBT10611   4.309   3.175   5.538
   75NSC    SBT10612   4.262   3.046   5.452
   75NSC    SBT10613   4.421   3.178   5.655
   75NSC    OBT10614   4.386   3.099   5.774
   75NSC    CBT10615   4.405   3.354   5.711
   75NSC    OBT10616   4.559   3.166   5.606
   75NSC    OBT10617   4.210   2.935   5.534
   75NSC    OBT10618   4.176   3.088   5.339
   75NSC     F110619   4.280   3.376   5.754
   75NSC     F110620   4.490   3.376   5.811
   75NSC     F110621   4.434   3.436   5.610
   75NSC    CBT10622   4.419   2.985   5.373
   75NSC     F110623   4.387   2.909   5.269
   75NSC     F110624   4.492   3.088   5.332
   75NSC     F110625   4.486   2.911   5.462
   76NSC    NBT10626   1.996   5.802   4.030
   76NSC    SBT10627   2.157   5.818   4.023
   76NSC    SBT10628   1.893   5.899   4.110
   76NSC    OBT10629   1.909   5.895   4.257
   76NSC    CBT10630   1.734   5.808   4.080
   76NSC    OBT10631   1.873   6.030   4.048
   76NSC    OBT10632   2.223   5.814   4.155
   76NSC    OBT10633   2.214   5.727   3.921
   76NSC     F110634   1.743   5.684   4.129
   76NSC     F110635   1.634   5.872   4.142
   76NSC     F110636   1.709   5.803   3.949
   76NSC    CBT10637   2.184   5.989   3.955
   76NSC     F110638   2.307   5.996   3.907
   76NSC     F110639   2.096   6.013   3.859
   76NSC     F110640   2.171   6.077   4.055
   77NSC    NBT10641   5.707   1.062   3.005
   77NSC    SBT10642   5.570   1.148   2.999
   77NSC    SBT10643   5.723   0.908   3.055
   77NSC    OBT10644   5.692   0.888   3.198
   77NSC    CBT10645   5.907   0.889   3.045
   77NSC    OBT10646   5.669   0.808   2.961
   77NSC    OBT10647   5.502   1.161   3.129
   77NSC    OBT10648   5.591   1.274   2.925
   77NSC     F110649   5.965   0.980   3.125
   77NSC     F110650   5.941   0.767   3.086
   77NSC     F110651   5.947   0.907   2.919
   77NSC    CBT10652   5.457   1.047   2.890
   77NSC     F110653   5.361   1.126   2.844
   77NSC     F110654   5.527   0.997   2.788
   77NSC     F110655   5.403   0.950   2.963
   78NSC    NBT10656   4.750   6.292   1.270
   78NSC    SBT10657   4.627   6.370   1.201
   78NSC    SBT10658   4.878   6.359   1.345
   78NSC    OBT10659   4.965   6.438   1.256
   78NSC    CBT10660   4.977   6.207   1.383
   78NSC    OBT10661   4.846   6.417   1.476
   78NSC    OBT10662   4.667   6.463   1.094
   78NSC    OBT10663   4.519   6.275   1.165
   78NSC     F110664   5.007   6.144   1.268
   78NSC     F110665   5.090   6.242   1.443
   78NSC     F110666   4.907   6.126   1.462
   78NSC    CBT10667   4.556   6.474   1.338
   78NSC     F110668   4.432   6.508   1.305
   78NSC     F110669   4.555   6.405   1.451
   78NSC     F110670   4.630   6.585   1.350
   79NSC    NBT10671   6.624   4.586   7.781
   79NSC    SBT10672   6.631   4.436   7.840
   79NSC    SBT10673   6.539   4.636   7.652
   79NSC    OBT10674   6.584   4.577   7.525
   79NSC    CBT10675   6.594   4.813   7.643
   79NSC    OBT10676   6.394   4.643   7.675
   79NSC    OBT10677   6.680   4.336   7.744
   79NSC    OBT10678   6.698   4.435   7.972
   79NSC     F110679   6.727   4.817   7.627
   79NSC     F110680   6.536   4.872   7.539
   79NSC     F110681   6.560   4.877   7.755
   79NSC    CBT10682   6.454   4.393   7.877
   79NSC     F110683   6.452   4.292   7.963
   79NSC     F110684   6.392   4.498   7.930
   79NSC     F110685   6.395   4.354   7.764
   80NSC    NBT10686   3.655   6.029   3.561
   80NSC    SBT10687   3.519   6.116   3.552
   80NSC    SBT10688   3.733   5.959   3.437
   80NSC    OBT10689   3.657   5.852   3.371
   80NSC    CBT10690   3.868   5.870   3.529
   80NSC    OBT10691   3.804   6.054   3.349
   80NSC    OBT10692   3.405   6.042   3.495
   80NSC    OBT10693   3.493   6.183   3.681
   80NSC     F110694   3.813   5.784   3.615
   80NSC     F110695   3.943   5.803   3.442
   80NSC     F110696   3.943   5.959   3.594
   80NSC    CBT10697   3.559   6.253   3.434
   80NSC     F110698   3.472   6.351   3.452
   80NSC     F110699   3.682   6.298   3.457
   80NSC     F110700   3.547   6.207   3.309
   81NSC    NBT10701   5.305   3.203   4.007
   81NSC    SBT10702   5.161   3.135   3.980
   81NSC    SBT10703   5.339   3.362   4.006
   81NSC    OBT10704   5.322   3.426   3.875
   81NSC    CBT10705   5.523   3.357   4.032
   81NSC    OBT10706   5.287   3.435   4.123
   81NSC    OBT10707   5.103   3.167   3.849
   81NSC    OBT10708   5.165   2.991   4.013
   81NSC     F110709   5.579   3.288   3.931
   81NSC     F110710   5.570   3.481   4.031
   81NSC     F110711   5.550   3.299   4.148
   81NSC    CBT10712   5.050   3.210   4.108
   81NSC     F110713   4.944   3.132   4.123
   81NSC     F110714   5.114   3.220   4.223
   81NSC     F110715   5.010   3.330   4.065
   82NSC    NBT10716   4.971   3.738   0.310
   82NSC    SBT10717   5.020   3.892   0.304
   82NSC    SBT10718   4.818   3.685   0.312
   82NSC    OBT10719   4.744   3.723   0.434
   82NSC    CBT10720   4.846   3.502   0.331
   82NSC    OBT10721   4.747   3.699   0.184
   82NSC    OBT10722   4.973   3.974   0.418
   82NSC    OBT10723   5.165   3.899   0.278
   82NSC     F110724   4.915   3.480   0.444
   82NSC     F110725   4.729   3.441   0.338
   82NSC     F110726   4.914   3.457   0.226
   82NSC    CBT10727   4.940   3.961   0.152
   82NSC     F110728   5.006   4.070   0.115
   82NSC     F110729   4.945   3.871   0.054
   82NSC     F110730   4.814   3.993   0.180
   83NSC    NBT10731   0.630   2.775   3.222
   83NSC    SBT10732   0.487   2.736   3.287
   83NSC    SBT10733   0.695   2.923   3.214
   83NSC    OBT10734   0.620   3.017   3.129
   83NSC    CBT10735   0.848   2.885   3.115
   83NSC    OBT10736   0.745   2.974   3.343
   83NSC    OBT10737   0.372   2.805   3.226
   83NSC    OBT10738   0.473   2.589   3.297
   83NSC     F110739   0.813   2.834   2.996
   83NSC     F110740   0.916   2.999   3.095
   83NSC     F110741   0.924   2.799   3.182
   83NSC    CBT10742   0.499   2.795   3.462
   83NSC     F110743   0.407   2.732   3.535
   83NSC     F110744   0.620   2.769   3.511
   83NSC     F110745   0.474   2.926   3.465
   84NSC    NBT10746   3.303   0.427   5.337
   84NSC    SBT10747   3.358   0.292   5.408
   84NSC    SBT10748   3.202   0.435   5.210
   84NSC    OBT10749   3.259   0.380   5.085
   84NSC    CBT10750   3.199   0.618   5.183
   84NSC    OBT10751   3.063   0.399   5.241
   84NSC    OBT10752   3.432   0.203   5.318
   84NSC    OBT10753   3.426   0.325   5.535
   84NSC     F110754   3.324   0.662   5.158
   84NSC     F110755   3.122   0.645   5.077
   84NSC     F110756   3.150   0.679   5.290
   84NSC    CBT10757   3.204   0.201   5.459
   84NSC     F110758   3.236   0.113   5.553
   84NSC     F110759   3.114   0.287   5.506
   84NSC     F110760   3.156   0.135   5.353
   85NSC    NBT10761   6.323   0.765   2.159
   85NSC    SBT10762   6.348   0.728   2.003
   85NSC    SBT10763   6.181   0.800   2.228
   85NSC    OBT10764   6.119   0.924   2.179
   85NSC    CBT10765   6.238   0.841   2.400
   85NSC    OBT10766   6.092   0.684   2.245
   85NSC    OBT10767   6.305   0.834   1.909
   85NSC    OBT10768   6.486   0.678   1.983
   85NSC     F110769   6.324   0.944   2.394
   85NSC     F110770   6.133   0.877   2.474
   85NSC     F110771   6.297   0.735   2.454
   85NSC    CBT10772   6.239   0.581   1.972
   85NSC     F110773   6.282   0.519   1.864
   85NSC     F110774   6.244   0.499   2.076
   85NSC     F110775   6.114   0.624   1.951
   86NSC    NBT10776   1.540   3.772   4.355
   86NSC    SBT10777   1.397   3.827   4.306
   86NSC    SBT10778   1.634   3.663   4.280
   86NSC    OBT10779   1.574   3.529   4.271
   86NSC    CBT10780   1.770   3.645   4.404
   86NSC    OBT10781   1.700   3.714   4.158
   86NSC    OBT10782   1.295   3.722   4.288
   86NSC    OBT10783   1.355   3.943   4.388
   86NSC     F110784   1.719   3.603   4.520
   86NSC     F110785   1.858   3.555   4.360
   86NSC     F110786   1.831   3.762   4.421
   86NSC    CBT10787   1.430   3.898   4.137
   86NSC     F110788   1.332   3.981   4.106
   86NSC     F110789   1.546   3.963   4.138
   86NSC     F110790   1.432   3.798   4.048
   87NSC    NBT10791   4.769   4.938   5.706
   87NSC    SBT10792   4.898   4.882   5.626
   87NSC    SBT10793   4.752   5.085   5.771
   87NSC    OBT10794   4.845   5.111   5.883
   87NSC    CBT10795   4.586   5.065   5.853
   87NSC    OBT10796   4.733   5.193   5.673
   87NSC    OBT10797   5.022   4.883   5.705
   87NSC    OBT10798   4.866   4.753   5.560
   87NSC     F110799   4.592   4.965   5.942
   87NSC     F110800   4.556   5.178   5.917
   87NSC     F110801   4.494   5.039   5.761
   87NSC    CBT10802   4.922   5.002   5.487
   87NSC     F110803   4.995   4.945   5.393
   87NSC     F110804   4.804   5.036   5.436
   87NSC     F110805   4.987   5.109   5.533
   88NSC    NBT10806   2.248   5.448   1.255
   88NSC    SBT10807   2.106   5.471   1.181
   88NSC    SBT10808   2.297   5.516   1.394
   88NSC    OBT10809   2.314   5.662   1.387
   88NSC    CBT10810   2.470   5.450   1.403
   88NSC    OBT10811   2.230   5.463   1.514
   88NSC    OBT10812   2.080   5.612   1.145
   88NSC    OBT10813   2.088   5.374   1.071
   88NSC     F110814   2.539   5.490   1.295
   88NSC     F110815   2.529   5.498   1.512
   88NSC     F110816   2.467   5.317   1.409
   88NSC    CBT10817   1.979   5.424   1.308
   88NSC     F110818   1.865   5.399   1.246
   88NSC     F110819   2.019   5.315   1.373
   88NSC     F110820   1.962   5.526   1.392
   89NSC    NBT10821   4.763   6.255   5.403
   89NSC    SBT10822   4.851   6.119   5.402
   89NSC    SBT10823   4.614   6.273   5.466
   89NSC    OBT10824   4.510   6.195   5.396
   89NSC    CBT10825   4.579   6.449   5.416
   89NSC    OBT10826   4.610   6.274   5.613
   89NSC    OBT10827   4.786   6.006   5.333
   89NSC    OBT10828   4.990   6.148   5.359
   89NSC     F110829   4.585   6.460   5.283
   89NSC     F110830   4.457   6.482   5.457
   89NSC     F110831   4.669   6.530   5.473
   89NSC    CBT10832   4.865   6.071   5.581
   89NSC     F110833   4.967   5.989   5.595
   89NSC     F110834   4.884   6.180   5.655
   89NSC     F110835   4.753   6.008   5.617
   90NSC    NBT10836   7.057   6.802   4.675
   90NSC    SBT10837   6.936   6.903   4.638
   90NSC    SBT10838   7.198   6.786   4.595
   90NSC    OBT10839   7.183   6.734   4.458
   90NSC    CBT10840   7.274   6.646   4.691
   90NSC    OBT10841   7.291   6.899   4.614
   90NSC    OBT10842   6.881   6.882   4.503
   90NSC    OBT10843   6.837   6.907   4.748
   90NSC     F110844   7.193   6.539   4.683
   90NSC     F110845   7.391   6.615   4.636
   90NSC     F110846   7.291   6.682   4.817
   90NSC    CBT10847   7.014   7.072   4.638
   90NSC     F110848   6.919   7.162   4.652
   90NSC     F110849   7.100   7.081   4.740
   90NSC     F110850   7.077   7.090   4.522
   91NSC    NBT10851   2.686   7.096   4.060
   91NSC    SBT10852   2.614   7.015   4.180
   91NSC    SBT10853   2.614   7.169   3.935
   91NSC    OBT10854   2.545   7.077   3.844
   91NSC    CBT10855   2.763   7.226   3.840
   91NSC    OBT10856   2.542   7.293   3.971
   91NSC    OBT10857   2.533   6.901   4.134
   91NSC    OBT10858   2.711   6.984   4.288
   91NSC     F110859   2.837   7.120   3.806
   91NSC     F110860   2.723   7.287   3.728
   91NSC     F110861   2.834   7.310   3.914
   91NSC    CBT10862   2.496   7.138   4.254
   91NSC     F110863   2.464   7.097   4.376
   91NSC     F110864   2.554   7.257   4.261
   91NSC     F110865   2.386   7.142   4.179
   92NSC    NBT10866   6.110   0.685   4.240
   92NSC    SBT10867   6.196   0.692   4.377
   92NSC    SBT10868   5.954   0.645   4.225
   92NSC    OBT10869   5.924   0.505   4.262
   92NSC    CBT10870   5.937   0.649   4.040
   92NSC    OBT10871   5.861   0.748   4.274
   92NSC    OBT10872   6.200   0.564   4.451
   92NSC    OBT10873   6.327   0.756   4.353
   92NSC     F110874   6.021   0.560   3.986
   92NSC     F110875   5.812   0.615   4.008
   92NSC     F110876   5.963   0.771   3.995
   92NSC    CBT10877   6.103   0.812   4.484
   92NSC     F110878   6.184   0.856   4.579
   92NSC     F110879   6.060   0.914   4.410
   92NSC     F110880   6.000   0.748   4.541
   93NSC    NBT10881   4.360   5.091   4.533
   93NSC    SBT10882   4.390   4.959   4.444
   93NSC    SBT10883   4.316   5.237   4.479
   93NSC    OBT10884   4.418   5.304   4.397
   93NSC    CBT10885   4.315   5.332   4.639
   93NSC    OBT10886   4.177   5.243   4.431
   93NSC    OBT10887   4.497   4.978   4.344
   93NSC    OBT10888   4.403   4.840   4.530
   93NSC     F110889   4.437   5.328   4.693
   93NSC     F110890   4.283   5.459   4.614
   93NSC     F110891   4.226   5.279   4.722
   93NSC    CBT10892   4.233   4.932   4.348
   93NSC     F110893   4.231   4.807   4.306
   93NSC     F110894   4.128   4.954   4.427
   93NSC     F110895   4.232   5.014   4.243
   94NSC    NBT10896   3.591   0.327   6.883
   94NSC    SBT10897   3.619   0.344   6.724
   94NSC    SBT10898   3.483   0.228   6.953
   94NSC    OBT10899   3.343   0.262   6.921
   94NSC    CBT10900   3.504   0.277   7.131
   94NSC    OBT10901   3.520   0.086   6.948
   94NSC    OBT10902   3.501   0.385   6.647
   94NSC    OBT10903   3.741   0.423   6.701
   94NSC     F110904   3.477   0.408   7.144
   94NSC     F110905   3.419   0.207   7.205
   94NSC     F110906   3.629   0.252   7.169
   94NSC    CBT10907   3.662   0.172   6.667
   94NSC     F110908   3.727   0.181   6.551
   94NSC     F110909   3.740   0.113   6.757
   94NSC     F110910   3.550   0.103   6.649
   95NSC    NBT10911   3.250   0.830   6.681
   95NSC    SBT10912   3.149   0.746   6.777
   95NSC    SBT10913   3.208   0.943   6.573
   95NSC    OBT10914   3.128   0.891   6.460
   95NSC    CBT10915   3.374   0.979   6.498
   95NSC    OBT10916   3.165   1.071   6.632
   95NSC    OBT10917   3.048   0.668   6.704
   95NSC    OBT10918   3.226   0.671   6.879
   95NSC     F110919   3.424   0.867   6.445
   95NSC     F110920   3.360   1.070   6.402
   95NSC     F110921   3.456   1.026   6.592
   95NSC    CBT10922   3.057   0.877   6.872
   95NSC     F110923   3.005   0.821   6.980
   95NSC     F110924   3.141   0.974   6.908
   95NSC     F110925   2.958   0.924   6.796
   96NSC    NBT10926   3.181   2.596   2.093
   96NSC    SBT10927   3.055   2.518   2.027
   96NSC    SBT10928   3.329   2.614   2.029
   96NSC    OBT10929   3.403   2.487   2.015
   96NSC    CBT10930   3.414   2.701   2.169
   96NSC    OBT10931   3.335   2.708   1.917
   96NSC    OBT10932   3.083   2.376   1.998
   96NSC    OBT10933   2.931   2.544   2.103
   96NSC     F110934   3.410   2.624   2.279
   96NSC     F110935   3.541   2.723   2.136
   96NSC     F110936   3.354   2.817   2.193
   96NSC    CBT10937   3.030   2.602   1.863
   96NSC     F110938   2.908   2.575   1.820
   96NSC     F110939   3.045   2.733   1.877
   96NSC     F110940   3.119   2.553   1.775
   97NSC    NBT10941   5.925   1.879   6.427
   97NSC    SBT10942   6.005   1.845   6.290
   97NSC    SBT10943   5.773   1.835   6.463
   97NSC    OBT10944   5.671   1.896   6.376
   97NSC    CBT10945   5.752   1.921   6.626
   97NSC    OBT10946   5.758   1.692   6.494
   97NSC    OBT10947   5.940   1.896   6.168
   97NSC    OBT10948   6.148   1.880   6.305
   97NSC     F110949   5.769   2.053   6.609
   97NSC     F110950   5.629   1.899   6.672
   97NSC     F110951   5.841   1.874   6.713
   97NSC    CBT10952   6.002   1.660   6.279
   97NSC     F110953   6.099   1.621   6.198
   97NSC     F110954   6.022   1.607   6.400
   97NSC     F110955   5.885   1.622   6.229
   98NSC    NBT10956   2.992   3.999   5.476
   98NSC    SBT10957   2.857   3.927   5.426
   98NSC    SBT10958   3.066   3.977   5.619
   98NSC    OBT10959   2.987   4.022   5.735
   98NSC    CBT10960   3.203   4.102   5.604
   98NSC    OBT10961   3.135   3.848   5.632
   98NSC    OBT10962   2.740   3.951   5.513
   98NSC    OBT10963   2.834   3.953   5.282
   98NSC     F110964   3.150   4.224   5.588
   98NSC     F110965   3.275   4.101   5.716
   98NSC     F110966   3.280   4.072   5.501
   98NSC    CBT10967   2.894   3.745   5.436
   98NSC     F110968   2.809   3.680   5.359
   98NSC     F110969   3.018   3.723   5.394
   98NSC     F110970   2.879   3.705   5.562
   99NSC    NBT10971   0.704   4.298   5.666
   99NSC    SBT10972   0.643   4.208   5.546
   99NSC    SBT10973   0.814   4.252   5.776
   99NSC    OBT10974   0.766   4.146   5.867
   99NSC    CBT10975   0.820   4.404   5.882
   99NSC    OBT10976   0.950   4.237   5.723
   99NSC    OBT10977   0.575   4.085   5.593
   99NSC    OBT10978   0.566   4.291   5.452
   99NSC     F110979   0.697   4.428   5.932
   99NSC     F110980   0.904   4.384   5.983
   99NSC     F110981   0.861   4.507   5.809
   99NSC    CBT10982   0.792   4.152   5.450
   99NSC     F110983   0.753   4.115   5.329
   99NSC     F110984   0.878   4.253   5.440
   99NSC     F110985   0.847   4.048   5.512
  100NSC    NBT10986   5.626   7.098   3.877
  100NSC    SBT10987   5.770   7.150   3.826
  100NSC    SBT10988   5.521   7.181   3.970
  100NSC    OBT10989   5.570   7.209   4.106
  100NSC    CBT10990   5.390   7.051   3.994
  100NSC    OBT10991   5.452   7.291   3.899
  100NSC    OBT10992   5.863   7.186   3.935
  100NSC    OBT10993   5.825   7.057   3.725
  100NSC     F110994   5.444   6.945   4.054
  100NSC     F110995   5.294   7.101   4.072
  100NSC     F110996   5.339   7.017   3.877
  100NSC    CBT10997   5.733   7.306   3.733
  100NSC     F110998   5.835   7.332   3.652
  100NSC     F110999   5.623   7.290   3.661
  100NSC     F111000   5.719   7.406   3.820
  101NSC    NBT11001   6.218   5.426   1.541
  101NSC    SBT11002   6.066   5.480   1.524
  101NSC    SBT11003   6.354   5.507   1.505
  101NSC    OBT11004   6.370   5.537   1.362
  101NSC    CBT11005   6.480   5.374   1.539
  101NSC    OBT11006   6.386   5.615   1.600
  101NSC    OBT11007   6.031   5.519   1.386
  101NSC    OBT11008   5.971   5.389   1.590
  101NSC     F111009   6.456   5.269   1.460
  101NSC     F111010   6.601   5.422   1.512
  101NSC     F111011   6.473   5.338   1.667
  101NSC    CBT11012   6.061   5.636   1.626
  101NSC     F111013   5.935   5.664   1.653
  101NSC     F111014   6.128   5.617   1.739
  101NSC     F111015   6.114   5.736   1.555
  102NSC    NBT11016   3.869   2.608   0.837
  102NSC    SBT11017   3.980   2.722   0.812
  102NSC    SBT11018   3.814   2.555   0.980
  102NSC    OBT11019   3.916   2.487   1.061
  102NSC    CBT11020   3.701   2.418   0.923
  102NSC    OBT11021   3.726   2.650   1.049
  102NSC    OBT11022   4.110   2.693   0.874
  102NSC    OBT11023   3.985   2.760   0.669
  102NSC     F111024   3.772   2.328   0.855
  102NSC     F111025   3.648   2.359   1.030
  102NSC     F111026   3.605   2.469   0.847
  102NSC    CBT11027   3.912   2.872   0.899
  102NSC     F111028   3.972   2.980   0.850
  102NSC     F111029   3.781   2.881   0.877
  102NSC     F111030   3.939   2.862   1.029
  103NSC    NBT11031   2.593   5.253   7.816
  103NSC    SBT11032   2.638   5.400   7.768
  103NSC    SBT11033   2.685   5.119   7.819
  103NSC    OBT11034   2.728   5.073   7.686
  103NSC    CBT11035   2.558   4.994   7.872
  103NSC    OBT11036   2.786   5.118   7.926
  103NSC    OBT11037   2.686   5.406   7.629
  103NSC    OBT11038   2.535   5.501   7.803
  103NSC     F111039   2.459   4.990   7.783
  103NSC     F111040   2.616   4.874   7.878
  103NSC     F111041   2.511   5.026   7.992
  103NSC    CBT11042   2.784   5.441   7.876
  103NSC     F111043   2.801   5.573   7.875
  103NSC     F111044   2.760   5.401   8.000
  103NSC     F111045   2.892   5.382   7.826
  104NSC    NBT11046   0.821   7.227   3.693
  104NSC    SBT11047   0.956   7.314   3.674
  104NSC    SBT11048   0.704   7.254   3.802
  104NSC    OBT11049   0.747   7.236   3.942
  104NSC    CBT11050   0.595   7.107   3.769
  104NSC    OBT11051   0.619   7.370   3.772
  104NSC    OBT11052   1.041   7.321   3.794
  104NSC    OBT11053   1.026   7.274   3.549
  104NSC     F111054   0.665   6.994   3.790
  104NSC     F111055   0.492   7.109   3.853
  104NSC     F111056   0.551   7.111   3.644
  104NSC    CBT11057   0.895   7.487   3.642
  104NSC     F111058   0.993   7.555   3.583
  104NSC     F111059   0.789   7.483   3.562
  104NSC     F111060   0.865   7.544   3.759
  105NSC    NBT11061   7.194   5.409   4.676
  105NSC    SBT11062   7.310   5.507   4.621
  105NSC    SBT11063   7.055   5.453   4.747
  105NSC    OBT11064   7.073   5.521   4.876
  105NSC    CBT11065   6.987   5.286   4.791
  105NSC    OBT11066   6.956   5.510   4.654
  105NSC    OBT11067   7.367   5.596   4.724
  105NSC    OBT11068   7.409   5.431   4.542
  105NSC     F111069   7.073   5.223   4.873
  105NSC     F111070   6.871   5.302   4.854
  105NSC     F111071   6.968   5.214   4.680
  105NSC    CBT11072   7.224   5.616   4.498
  105NSC     F111073   7.314   5.670   4.418
  105NSC     F111074   7.138   5.544   4.426
  105NSC     F111075   7.160   5.713   4.564
  106NSC    NBT11076   0.190   4.025   1.946
  106NSC    SBT11077   0.142   4.154   2.032
  106NSC    SBT11078   0.184   4.008   1.785
  106NSC    OBT11079   0.047   4.005   1.730
  106NSC    CBT11080   0.244   3.833   1.768
  106NSC    OBT11081   0.283   4.089   1.712
  106NSC    OBT11082  -0.000   4.188   2.013
  106NSC    OBT11083   0.187   4.142   2.172
  106NSC     F111084   0.162   3.752   1.835
  106NSC     F111085   0.243   3.799   1.639
  106NSC     F111086   0.368   3.824   1.816
  106NSC    CBT11087   0.240   4.295   1.962
  106NSC     F111088   0.241   4.394   2.050
  106NSC     F111089   0.365   4.256   1.938
  106NSC     F111090   0.181   4.337   1.850
  107NSC    NBT11091   2.603   3.000   5.587
  107NSC    SBT11092   2.700   3.121   5.633
  107NSC    SBT11093   2.457   2.963   5.648
  107NSC    OBT11094   2.461   2.921   5.790
  107NSC    CBT11095   2.420   2.808   5.554
  107NSC    OBT11096   2.351   3.057   5.610
  107NSC    OBT11097   2.738   3.117   5.775
  107NSC    OBT11098   2.812   3.137   5.537
  107NSC     F111099   2.515   2.716   5.580
  107NSC     F111100   2.303   2.760   5.594
  107NSC     F111101   2.416   2.834   5.424
  107NSC    CBT11102   2.595   3.274   5.610
  107NSC     F111103   2.676   3.379   5.603
  107NSC     F111104   2.526   3.264   5.497
  107NSC     F111105   2.515   3.287   5.715
  108NSC    NBT11106   0.706   2.155   6.415
  108NSC    SBT11107   0.692   1.998   6.452
  108NSC    SBT11108   0.754   2.274   6.513
  108NSC    OBT11109   0.662   2.299   6.626
  108NSC    CBT11110   0.731   2.420   6.401
  108NSC    OBT11111   0.898   2.273   6.544
  108NSC    OBT11112   0.599   1.971   6.563
  108NSC    OBT11113   0.670   1.917   6.330
  108NSC     F111114   0.602   2.427   6.364
  108NSC     F111115   0.763   2.531   6.467
  108NSC     F111116   0.809   2.407   6.294
  108NSC    CBT11117   0.861   1.950   6.512
  108NSC     F111118   0.872   1.818   6.505
  108NSC     F111119   0.954   2.006   6.436
  108NSC     F111120   0.874   1.988   6.639
  109NSC    NBT11121   7.186   0.654   7.370
  109NSC    SBT11122   7.059   0.563   7.328
  109NSC    SBT11123   7.343   0.613   7.355
  109NSC    OBT11124   7.383   0.500   7.440
  109NSC    CBT11125   7.422   0.761   7.435
  109NSC    OBT11126   7.393   0.614   7.217
  109NSC    OBT11127   7.053   0.433   7.397
  109NSC    OBT11128   6.935   0.643   7.333
  109NSC     F111129   7.380   0.772   7.561
  109NSC     F111130   7.554   0.745   7.435
  109NSC     F111131   7.391   0.871   7.366
  109NSC    CBT11132   7.086   0.526   7.148
  109NSC     F111133   6.970   0.490   7.095
  109NSC     F111134   7.131   0.634   7.086
  109NSC     F111135   7.172   0.425   7.137
  110NSC    NBT11136   2.821   3.348   3.025
  110NSC    SBT11137   2.981   3.337   3.049
  110NSC    SBT11138   2.728   3.239   2.949
  110NSC    OBT11139   2.758   3.225   2.805
  110NSC    CBT11140   2.565   3.329   2.952
  110NSC    OBT11141   2.705   3.115   3.025
  110NSC    OBT11142   3.060   3.327   2.925
  110NSC    OBT11143   3.026   3.442   3.144
  110NSC     F111144   2.577   3.446   2.889
  110NSC     F111145   2.474   3.255   2.890
  110NSC     F111146   2.528   3.349   3.079
  110NSC    CBT11147   3.004   3.177   3.140
  110NSC     F111148   3.122   3.179   3.201
  110NSC     F111149   2.908   3.163   3.231
  110NSC     F111150   3.002   3.077   3.052
  111NSC    NBT11151   7.503   3.528   5.408
  111NSC    SBT11152   7.551   3.577   5.555
  111NSC    SBT11153   7.599   3.497   5.281
  111NSC    OBT11154   7.670   3.616   5.229
  111NSC    CBT11155   7.470   3.461   5.152
  111NSC    OBT11156   7.676   3.373   5.293
  111NSC    OBT11157   7.626   3.704   5.554
  111NSC    OBT11158   7.439   3.571   5.651
  111NSC     F111159   7.391   3.568   5.137
  111NSC     F111160   7.530   3.435   5.036
  111NSC     F111161   7.398   3.355   5.190
  111NSC    CBT11162   7.670   3.446   5.611
  111NSC     F111163   7.681   3.453   5.743
  111NSC     F111164   7.623   3.326   5.577
  111NSC     F111165   7.789   3.469   5.556
  112NSC    NBT11166   5.803   6.714   3.993
  112NSC    SBT11167   5.738   6.863   3.988
  112NSC    SBT11168   5.938   6.670   4.071
  112NSC    OBT11169   6.060   6.733   4.018
  112NSC    CBT11170   5.950   6.493   4.018
  112NSC    OBT11171   5.924   6.665   4.218
  112NSC    OBT11172   5.828   6.965   3.932
  112NSC    OBT11173   5.603   6.858   3.929
  112NSC     F111174   5.959   6.487   3.884
  112NSC     F111175   6.060   6.439   4.071
  112NSC     F111176   5.843   6.426   4.060
  112NSC    CBT11177   5.711   6.907   4.167
  112NSC     F111178   5.621   7.005   4.172
  112NSC     F111179   5.665   6.801   4.233
  112NSC     F111180   5.826   6.950   4.218
  113NSC    NBT11181   5.949   0.701   5.636
  113NSC    SBT11182   5.881   0.832   5.568
  113NSC    SBT11183   6.084   0.626   5.587
  113NSC    OBT11184   6.072   0.563   5.454
  113NSC    CBT11185   6.086   0.483   5.705
  113NSC    OBT11186   6.208   0.700   5.615
  113NSC    OBT11187   5.844   0.813   5.427
  113NSC    OBT11188   5.774   0.886   5.655
  113NSC     F111189   5.974   0.411   5.690
  113NSC     F111190   6.191   0.406   5.678
  113NSC     F111191   6.095   0.528   5.830
  113NSC    CBT11192   6.015   0.960   5.571
  113NSC     F111193   5.959   1.080   5.559
  113NSC     F111194   6.080   0.954   5.687
  113NSC     F111195   6.097   0.939   5.469
  114NSC    NBT11196   1.091   5.617   7.031
  114NSC    SBT11197   1.239   5.568   6.986
  114NSC    SBT11198   0.973   5.525   7.092
  114NSC    OBT11199   0.921   5.424   6.998
  114NSC    CBT11200   0.837   5.651   7.104
  114NSC    OBT11201   0.996   5.481   7.231
  114NSC    OBT11202   1.237   5.464   6.881
  114NSC    OBT11203   1.326   5.684   6.959
  114NSC     F111204   0.811   5.700   6.983
  114NSC     F111205   0.727   5.592   7.151
  114NSC     F111206   0.874   5.748   7.187
  114NSC    CBT11207   1.310   5.488   7.138
  114NSC     F111208   1.441   5.483   7.126
  114NSC     F111209   1.278   5.560   7.245
  114NSC     F111210   1.262   5.364   7.148
  115NSC    NBT11211   6.789   5.913   7.167
  115NSC    SBT11212   6.794   5.965   7.015
  115NSC    SBT11213   6.684   5.959   7.283
  115NSC    OBT11214   6.697   6.101   7.321
  115NSC    CBT11215   6.751   5.865   7.428
  115NSC    OBT11216   6.547   5.907   7.264
  115NSC    OBT11217   6.814   6.111   7.002
  115NSC    OBT11218   6.886   5.882   6.934
  115NSC     F111219   6.878   5.902   7.450
  115NSC     F111220   6.678   5.893   7.536
  115NSC     F111221   6.746   5.734   7.403
  115NSC    CBT11222   6.625   5.929   6.947
  115NSC     F111223   6.631   5.928   6.815
  115NSC     F111224   6.584   5.809   6.990
  115NSC     F111225   6.541   6.025   6.986
  116NSC    NBT11226   3.341   3.086   4.484
  116NSC    SBT11227   3.353   3.243   4.446
  116NSC    SBT11228   3.459   2.976   4.484
  116NSC    OBT11229   3.514   2.948   4.350
  116NSC    CBT11230   3.363   2.823   4.527
  116NSC    OBT11231   3.556   2.991   4.593
  116NSC    OBT11232   3.402   3.266   4.309
  116NSC    OBT11233   3.230   3.316   4.483
  116NSC     F111234   3.268   2.803   4.434
  116NSC     F111235   3.445   2.718   4.528
  116NSC     F111236   3.307   2.838   4.646
  116NSC    CBT11237   3.484   3.308   4.560
  116NSC     F111238   3.473   3.440   4.567
  116NSC     F111239   3.468   3.256   4.681
  116NSC     F111240   3.604   3.277   4.511
  117NSC    NBT11241   2.683   6.277   1.413
  117NSC    SBT11242   2.579   6.294   1.290
  117NSC    SBT11243   2.761   6.396   1.491
  117NSC    OBT11244   2.857   6.470   1.406
  117NSC    CBT11245   2.869   6.295   1.604
  117NSC    OBT11246   2.676   6.475   1.581
  117NSC    OBT11247   2.635   6.363   1.173
  117NSC    OBT11248   2.510   6.166   1.262
  117NSC     F111249   2.948   6.215   1.530
  117NSC     F111250   2.945   6.377   1.676
  117NSC     F111251   2.793   6.221   1.684
  117NSC    CBT11252   2.446   6.405   1.359
  117NSC     F111253   2.337   6.392   1.285
  117NSC     F111254   2.419   6.371   1.484
  117NSC     F111255   2.488   6.532   1.352
  118NSC    NBT11256   6.522   7.198   4.629
  118NSC    SBT11257   6.411   7.148   4.735
  118NSC    SBT11258   6.517   7.180   4.468
  118NSC    OBT11259   6.523   7.039   4.423
  118NSC    CBT11260   6.682   7.250   4.421
  118NSC    OBT11261   6.419   7.267   4.400
  118NSC    OBT11262   6.386   7.003   4.732
  118NSC    OBT11263   6.439   7.205   4.869
  118NSC     F111264   6.779   7.180   4.482
  118NSC     F111265   6.698   7.241   4.290
  118NSC     F111266   6.688   7.378   4.458
  118NSC    CBT11267   6.254   7.230   4.680
  118NSC     F111268   6.168   7.231   4.782
  118NSC     F111269   6.279   7.355   4.642
  118NSC     F111270   6.201   7.159   4.580
  119NSC    NBT11271   6.059   6.165   4.434
  119NSC    SBT11272   6.104   6.261   4.311
  119NSC    SBT11273   6.123   6.162   4.583
  119NSC    OBT11274   6.263   6.119   4.587
  119NSC    CBT11275   6.028   6.020   4.656
  119NSC    OBT11276   6.086   6.278   4.666
  119NSC    OBT11277   6.245   6.247   4.273
  119NSC    OBT11278   6.007   6.251   4.200
  119NSC     F111279   6.052   5.909   4.584
  119NSC     F111280   6.070   6.000   4.781
  119NSC     F111281   5.898   6.048   4.656
  119NSC    CBT11282   6.084   6.433   4.378
  119NSC     F111283   6.076   6.517   4.276
  119NSC     F111284   5.972   6.440   4.450
  119NSC     F111285   6.190   6.463   4.452
  120NSC    NBT11286   6.955   4.729   6.629
  120NSC    SBT11287   6.950   4.809   6.488
  120NSC    SBT11288   6.963   4.795   6.777
  120NSC    OBT11289   7.088   4.869   6.802
  120NSC    CBT11290   6.979   4.641   6.880
  120NSC    OBT11291   6.838   4.858   6.822
  120NSC    OBT11292   7.066   4.897   6.465
  120NSC    OBT11293   6.918   4.716   6.377
  120NSC     F111294   7.089   4.574   6.843
  120NSC     F111295   6.990   4.676   7.008
  120NSC     F111296   6.871   4.565   6.863
  120NSC    CBT11297   6.801   4.919   6.503
  120NSC     F111298   6.763   4.955   6.381
  120NSC     F111299   6.702   4.853   6.562
  120NSC     F111300   6.835   5.028   6.572
  121NSC    NBT11301   4.054   5.356   6.427
  121NSC    SBT11302   4.091   5.459   6.545
  121NSC    SBT11303   3.969   5.388   6.293
  121NSC    OBT11304   3.828   5.422   6.319
  121NSC    CBT11305   3.961   5.218   6.217
  121NSC    OBT11306   4.040   5.470   6.194
  121NSC    OBT11307   3.973   5.519   6.611
  121NSC    OBT11308   4.191   5.400   6.637
  121NSC     F111309   3.901   5.134   6.303
  121NSC     F111310   3.890   5.224   6.105
  121NSC     F111311   4.084   5.176   6.190
  121NSC    CBT11312   4.180   5.598   6.460
  121NSC     F111313   4.250   5.665   6.550
  121NSC     F111314   4.262   5.548   6.368
  121NSC     F111315   4.090   5.680   6.405
  122NSC    NBT11316   3.757   5.065   6.676
  122NSC    SBT11317   3.724   4.945   6.573
  122NSC    SBT11318   3.801   5.216   6.638
  122NSC    OBT11319   3.932   5.225   6.571
  122NSC    CBT11320   3.831   5.285   6.808
  122NSC    OBT11321   3.692   5.299   6.583
  122NSC    OBT11322   3.836   4.912   6.483
  122NSC    OBT11323   3.663   4.830   6.644
  122NSC     F111324   3.927   5.213   6.869
  122NSC     F111325   3.873   5.411   6.797
  122NSC     F111326   3.719   5.281   6.879
  122NSC    CBT11327   3.588   5.013   6.466
  122NSC     F111328   3.526   4.911   6.408
  122NSC     F111329   3.502   5.081   6.540
  122NSC     F111330   3.642   5.090   6.372
  123NSC    NBT11331   1.802   2.142   1.025
  123NSC    SBT11332   1.681   2.238   1.071
  123NSC    SBT11333   1.960   2.180   1.020
  123NSC    OBT11334   1.992   2.285   0.922
  123NSC    CBT11335   2.028   2.024   0.945
  123NSC    OBT11336   2.023   2.189   1.152
  123NSC    OBT11337   1.669   2.362   0.992
  123NSC    OBT11338   1.556   2.160   1.086
  123NSC     F111339   1.972   2.004   0.825
  123NSC     F111340   2.160   2.038   0.930
  123NSC     F111341   2.003   1.921   1.025
  123NSC    CBT11342   1.726   2.289   1.244
  123NSC     F111343   1.617   2.332   1.306
  123NSC     F111344   1.776   2.185   1.310
  123NSC     F111345   1.814   2.389   1.238
  124NSC    NBT11346   0.837   5.933   3.246
  124NSC    SBT11347   0.819   5.773   3.252
  124NSC    SBT11348   0.727   6.041   3.193
  124NSC    OBT11349   0.697   6.028   3.049
  124NSC    CBT11350   0.826   6.197   3.206
  124NSC    OBT11351   0.613   6.060   3.284
  124NSC    OBT11352   0.792   5.710   3.122
  124NSC    OBT11353   0.930   5.712   3.330
  124NSC     F111354   0.935   6.187   3.129
  124NSC     F111355   0.752   6.299   3.162
  124NSC     F111356   0.861   6.218   3.333
  124NSC    CBT11357   0.668   5.747   3.357
  124NSC     F111358   0.669   5.622   3.403
  124NSC     F111359   0.668   5.832   3.458
  124NSC     F111360   0.559   5.764   3.280
  125NSC    NBT11361   3.830   2.073   6.266
  125NSC    SBT11362   3.815   1.943   6.362
  125NSC    SBT11363   3.879   2.073   6.112
  125NSC    OBT11364   4.019   2.032   6.094
  125NSC    CBT11365   3.880   2.256   6.079
  125NSC    OBT11366   3.781   2.019   6.016
  125NSC    OBT11367   3.941   1.868   6.380
  125NSC    OBT11368   3.744   1.979   6.487
  125NSC     F111369   3.965   2.316   6.164
  125NSC     F111370   3.923   2.278   5.954
  125NSC     F111371   3.758   2.305   6.094
  125NSC    CBT11372   3.699   1.831   6.271
  125NSC     F111373   3.647   1.744   6.357
  125NSC     F111374   3.601   1.902   6.216
  125NSC     F111375   3.767   1.764   6.178
  126NSC    NBT11376   0.358   7.525   1.748
  126NSC    SBT11377   0.490   7.433   1.753
  126NSC    SBT11378   0.232   7.521   1.850
  126NSC    OBT11379   0.156   7.395   1.845
  126NSC    CBT11380   0.121   7.646   1.771
  126NSC    OBT11381   0.261   7.575   1.984
  126NSC    OBT11382   0.462   7.288   1.744
  126NSC    OBT11383   0.593   7.483   1.659
  126NSC     F111384   0.092   7.607   1.646
  126NSC     F111385   0.007   7.654   1.840
  126NSC     F111386   0.181   7.764   1.769
  126NSC    CBT11387   0.561   7.462   1.922
  126NSC     F111388   0.689   7.425   1.922
  126NSC     F111389   0.552   7.591   1.953
  126NSC     F111390   0.495   7.387   2.010
  127NSC    NBT11391   0.792   6.078   3.910
  127NSC    SBT11392   0.883   6.202   3.962
  127NSC    SBT11393   0.816   5.989   3.777
  127NSC    OBT11394   0.801   6.066   3.651
  127NSC    CBT11395   0.666   5.880   3.783
  127NSC    OBT11396   0.931   5.897   3.785
  127NSC    OBT11397   0.893   6.313   3.865
  127NSC    OBT11398   0.844   6.241   4.099
  127NSC     F111399   0.556   5.956   3.779
  127NSC     F111400   0.667   5.800   3.676
  127NSC     F111401   0.669   5.807   3.894
  127NSC    CBT11402   1.054   6.130   3.978
  127NSC     F111403   1.125   6.209   4.058
  127NSC     F111404   1.046   6.008   4.030
  127NSC     F111405   1.111   6.127   3.858
  128NSC    NBT11406   2.657   7.750   0.818
  128NSC    SBT11407   2.509   7.695   0.854
  128NSC    SBT11408   2.698   7.904   0.787
  128NSC    OBT11409   2.637   7.958   0.664
  128NSC    CBT11410   2.877   7.882   0.744
  128NSC    OBT11411   2.698   7.991   0.905
  128NSC    OBT11412   2.408   7.722   0.750
  128NSC    OBT11413   2.516   7.554   0.900
  128NSC     F111414   2.887   7.799   0.638
  128NSC     F111415   2.929   8.000   0.711
  128NSC     F111416   2.942   7.831   0.848
  128NSC    CBT11417   2.458   7.792   1.004
  128NSC     F111418   2.361   7.727   1.065
  128NSC     F111419   2.562   7.805   1.086
  128NSC     F111420   2.413   7.912   0.964
  129NSC    NBT11421   5.332   4.812   4.213
  129NSC    SBT11422   5.485   4.766   4.188
  129NSC    SBT11423   5.273   4.963   4.200
  129NSC    OBT11424   5.329   5.058   4.298
  129NSC    CBT11425   5.098   4.935   4.257
  129NSC    OBT11426   5.260   5.010   4.061
  129NSC    OBT11427   5.583   4.835   4.274
  129NSC    OBT11428   5.495   4.619   4.185
  129NSC     F111429   5.100   4.887   4.383
  129NSC     F111430   5.033   5.051   4.256
  129NSC     F111431   5.038   4.848   4.176
  129NSC    CBT11432   5.521   4.819   4.013
  129NSC     F111433   5.624   4.750   3.969
  129NSC     F111434   5.415   4.795   3.937
  129NSC     F111435   5.551   4.949   4.013
  130NSC    NBT11436   0.746   2.777   4.116
  130NSC    SBT11437   0.886   2.711   4.162
  130NSC    SBT11438   0.636   2.712   4.016
  130NSC    OBT11439   0.685   2.695   3.878
  130NSC    CBT11440   0.514   2.852   4.005
  130NSC    OBT11441   0.560   2.600   4.074
  130NSC    OBT11442   0.977   2.680   4.050
  130NSC    OBT11443   0.946   2.789   4.273
  130NSC     F111444   0.576   2.961   3.956
  130NSC     F111445   0.416   2.817   3.922
  130NSC     F111446   0.465   2.877   4.126
  130NSC    CBT11447   0.838   2.549   4.238
  130NSC     F111448   0.937   2.507   4.315
  130NSC     F111449   0.728   2.564   4.311
  130NSC     F111450   0.818   2.460   4.141
  131NSC    NBT11451   6.757   0.264   4.901
  131NSC    SBT11452   6.608   0.206   4.879
  131NSC    SBT11453   6.822   0.395   4.830
  131NSC    OBT11454   6.838   0.382   4.684
  131NSC    CBT11455   6.995   0.386   4.897
  131NSC    OBT11456   6.769   0.523   4.881
  131NSC    OBT11457   6.578   0.171   4.739
  131NSC    OBT11458   6.578   0.101   4.979
  131NSC     F111459   7.051   0.270   4.859
  131NSC     F111460   7.066   0.487   4.846
  131NSC     F111461   6.993   0.395   5.029
  131NSC    CBT11462   6.496   0.348   4.923
  131NSC     F111463   6.376   0.299   4.950
  131NSC     F111464   6.544   0.410   5.031
  131NSC     F111465   6.488   0.431   4.819
  132NSC    NBT11466   6.238   6.934   0.512
  132NSC    SBT11467   6.372   6.845   0.530
  132NSC    SBT11468   6.149   6.949   0.378
  132NSC    OBT11469   6.219   7.016   0.267
  132NSC    CBT11470   6.024   7.074   0.435
  132NSC    OBT11471   6.070   6.830   0.344
  132NSC    OBT11472   6.481   6.883   0.438
  132NSC    OBT11473   6.410   6.836   0.673
  132NSC     F111474   6.087   7.186   0.473
  132NSC     F111475   5.941   7.103   0.334
  132NSC     F111476   5.954   7.024   0.537
  132NSC    CBT11477   6.320   6.673   0.484
  132NSC     F111478   6.408   6.588   0.534
  132NSC     F111479   6.199   6.648   0.533
  132NSC     F111480   6.321   6.662   0.351
  133NSC    NBT11481   6.361   5.151   4.556
  133NSC    SBT11482   6.511   5.109   4.599
  133NSC    SBT11483   6.246   5.211   4.653
  133NSC    OBT11484   6.200   5.116   4.756
  133NSC    CBT11485   6.104   5.220   4.533
  133NSC    OBT11486   6.269   5.350   4.695
  133NSC    OBT11487   6.517   5.005   4.703
  133NSC    OBT11488   6.594   5.083   4.479
  133NSC     F111489   6.078   5.097   4.486
  133NSC     F111490   5.996   5.265   4.597
  133NSC     F111491   6.135   5.302   4.434
  133NSC    CBT11492   6.583   5.263   4.674
  133NSC     F111493   6.715   5.253   4.673
  133NSC     F111494   6.546   5.369   4.603
  133NSC     F111495   6.541   5.273   4.800
  134NSC    NBT11496   0.285   7.396   2.515
  134NSC    SBT11497   0.415   7.378   2.610
  134NSC    SBT11498   0.261   7.512   2.404
  134NSC    OBT11499   0.249   7.647   2.461
  134NSC    CBT11500   0.088   7.470   2.350
  134NSC    OBT11501   0.343   7.497   2.282
  134NSC    OBT11502   0.442   7.495   2.696
  134NSC    OBT11503   0.411   7.248   2.679
  134NSC     F111504   0.006   7.476   2.456
  134NSC     F111505   0.048   7.558   2.259
  134NSC     F111506   0.086   7.347   2.298
  134NSC    CBT11507   0.557   7.366   2.491
  134NSC     F111508   0.660   7.310   2.554
  134NSC     F111509   0.523   7.291   2.387
  134NSC     F111510   0.592   7.489   2.452
  135NSC    NBT11511   5.045   5.963   0.682
  135NSC    SBT11512   5.059   5.882   0.821
  135NSC    SBT11513   4.923   6.061   0.639
  135NSC    OBT11514   4.793   5.992   0.623
  135NSC    CBT11515   4.974   6.103   0.466
  135NSC    OBT11516   4.921   6.190   0.710
  135NSC    OBT11517   4.947   5.788   0.847
  135NSC    OBT11518   5.194   5.824   0.834
  135NSC     F111519   4.983   5.991   0.394
  135NSC     F111520   4.883   6.183   0.411
  135NSC     F111521   5.092   6.165   0.468
  135NSC    CBT11522   5.050   6.013   0.953
  135NSC     F111523   5.102   5.964   1.064
  135NSC     F111524   5.119   6.119   0.914
  135NSC     F111525   4.922   6.044   0.974
  136NSC    NBT11526   1.809   7.783   7.258
  136NSC    SBT11527   1.692   7.708   7.340
  136NSC    SBT11528   1.958   7.726   7.228
  136NSC    OBT11529   2.040   7.709   7.349
  136NSC    CBT11530   2.032   7.873   7.141
  136NSC    OBT11531   1.962   7.617   7.128
  136NSC    OBT11532   1.729   7.674   7.479
  136NSC    OBT11533   1.563   7.779   7.325
  136NSC     F111534   2.028   7.979   7.223
  136NSC     F111535   2.159   7.846   7.111
  136NSC     F111536   1.964   7.898   7.030
  136NSC    CBT11537   1.668   7.546   7.251
  136NSC     F111538   1.549   7.498   7.283
  136NSC     F111539   1.674   7.567   7.120
  136NSC     F111540   1.762   7.461   7.291
  137NSC    NBT11541   1.815   1.524   0.385
  137NSC    SBT11542   1.769   1.481   0.236
  137NSC    SBT11543   1.766   1.655   0.467
  137NSC    OBT11544   1.809   1.782   0.407
  137NSC    CBT11545   1.871   1.638   0.620
  137NSC    OBT11546   1.627   1.647   0.516
  137NSC    OBT11547   1.799   1.582   0.133
  137NSC    OBT11548   1.815   1.344   0.205
  137NSC     F111549   2.000   1.639   0.585
  137NSC     F111550   1.847   1.741   0.701
  137NSC     F111551   1.841   1.524   0.682
  137NSC    CBT11552   1.584   1.469   0.246
  137NSC     F111553   1.541   1.395   0.144
  137NSC     F111554   1.549   1.412   0.360
  137NSC     F111555   1.532   1.592   0.236
  138NSC    NBT11556   0.700   4.190   7.366
  138NSC    SBT11557   0.632   4.295   7.263
  138NSC    SBT11558   0.642   4.145   7.511
  138NSC    OBT11559   0.637   4.255   7.609
  138NSC    CBT11560   0.780   4.036   7.569
  138NSC    OBT11561   0.524   4.057   7.503
  138NSC    OBT11562   0.612   4.430   7.319
  138NSC    OBT11563   0.701   4.291   7.132
  138NSC     F111564   0.893   4.108   7.575
  138NSC     F111565   0.751   3.991   7.691
  138NSC     F111566   0.795   3.934   7.485
  138NSC    CBT11567   0.463   4.225   7.230
  138NSC     F111568   0.417   4.278   7.118
  138NSC     F111569   0.471   4.093   7.218
  138NSC     F111570   0.382   4.259   7.331
  139NSC    NBT11571   1.682   3.758   3.472
  139NSC    SBT11572   1.564   3.865   3.500
  139NSC    SBT11573   1.716   3.626   3.560
  139NSC    OBT11574   1.763   3.656   3.697
  139NSC    CBT11575   1.868   3.566   3.471
  139NSC    OBT11576   1.619   3.517   3.546
  139NSC    OBT11577   1.573   3.931   3.632
  139NSC    OBT11578   1.548   3.956   3.385
  139NSC     F111579   1.962   3.662   3.475
  139NSC     F111580   1.914   3.458   3.533
  139NSC     F111581   1.838   3.537   3.345
  139NSC    CBT11582   1.409   3.763   3.502
  139NSC     F111583   1.305   3.844   3.482
  139NSC     F111584   1.413   3.672   3.406
  139NSC     F111585   1.396   3.705   3.622
  140NSC    NBT11586   0.989   4.621   1.326
  140NSC    SBT11587   1.110   4.543   1.400
  140NSC    SBT11588   0.906   4.571   1.196
  140NSC    OBT11589   0.988   4.561   1.073
  140NSC    CBT11590   0.798   4.719   1.167
  140NSC    OBT11591   0.813   4.460   1.222
  140NSC    OBT11592   1.225   4.515   1.312
  140NSC    OBT11593   1.143   4.608   1.528
  140NSC     F111594   0.874   4.827   1.145
  140NSC     F111595   0.722   4.697   1.059
  140NSC     F111596   0.720   4.738   1.273
  140NSC    CBT11597   1.037   4.378   1.446
  140NSC     F111598   1.111   4.325   1.542
  140NSC     F111599   0.913   4.396   1.490
  140NSC     F111600   1.039   4.299   1.339
  141NSC    NBT11601   5.701   1.463   3.976
  141NSC    SBT11602   5.852   1.405   3.966
  141NSC    SBT11603   5.565   1.387   3.931
  141NSC    OBT11604   5.556   1.362   3.786
  141NSC    CBT11605   5.441   1.522   3.963
  141NSC    OBT11606   5.525   1.277   4.020
  141NSC    OBT11607   5.893   1.370   3.829
  141NSC    OBT11608   5.946   1.492   4.040
  141NSC     F111609   5.472   1.629   3.888
  141NSC     F111610   5.320   1.478   3.928
  141NSC     F111611   5.441   1.553   4.092
  141NSC    CBT11612   5.847   1.246   4.062
  141NSC     F111613   5.971   1.214   4.096
  141NSC     F111614   5.775   1.263   4.172
  141NSC     F111615   5.796   1.150   3.985
  142NSC    NBT11616   6.535   4.480   1.665
  142NSC    SBT11617   6.393   4.554   1.643
  142NSC    SBT11618   6.558   4.327   1.715
  142NSC    OBT11619   6.512   4.302   1.853
  142NSC    CBT11620   6.743   4.324   1.727
  142NSC    OBT11621   6.525   4.225   1.614
  142NSC    OBT11622   6.309   4.559   1.764
  142NSC    OBT11623   6.412   4.683   1.574
  142NSC     F111624   6.784   4.417   1.814
  142NSC     F111625   6.782   4.205   1.770
  142NSC     F111626   6.796   4.348   1.607
  142NSC    CBT11627   6.303   4.447   1.521
  142NSC     F111628   6.207   4.518   1.464
  142NSC     F111629   6.388   4.405   1.427
  142NSC     F111630   6.249   4.344   1.586
  143NSC    NBT11631   7.302   5.228   6.464
  143NSC    SBT11632   7.461   5.259   6.472
  143NSC    SBT11633   7.182   5.323   6.518
  143NSC    OBT11634   7.182   5.341   6.664
  143NSC    CBT11635   7.036   5.214   6.484
  143NSC    OBT11636   7.159   5.443   6.436
  143NSC    OBT11637   7.511   5.279   6.609
  143NSC    OBT11638   7.537   5.162   6.391
  143NSC     F111639   7.050   5.099   6.552
  143NSC     F111640   6.925   5.275   6.526
  143NSC     F111641   7.028   5.190   6.354
  143NSC    CBT11642   7.481   5.421   6.384
  143NSC     F111643   7.608   5.434   6.348
  143NSC     F111644   7.403   5.423   6.276
  143NSC     F111645   7.449   5.520   6.467
  144NSC    NBT11646   0.713   3.390   3.158
  144NSC    SBT11647   0.866   3.341   3.148
  144NSC    SBT11648   0.653   3.501   3.260
  144NSC    OBT11649   0.659   3.461   3.402
  144NSC    CBT11650   0.472   3.490   3.217
  144NSC    OBT11651   0.691   3.639   3.229
  144NSC    OBT11652   0.919   3.283   3.274
  144NSC    OBT11653   0.887   3.258   3.027
  144NSC     F111654   0.429   3.365   3.239
  144NSC     F111655   0.404   3.574   3.295
  144NSC     F111656   0.455   3.523   3.090
  144NSC    CBT11657   0.963   3.497   3.117
  144NSC     F111658   1.081   3.464   3.067
  144NSC     F111659   0.897   3.574   3.031
  144NSC     F111660   0.982   3.560   3.234
  145NSC    NBT11661   1.724   6.050   3.539
  145NSC    SBT11662   1.610   5.939   3.506
  145NSC    SBT11663   1.726   6.204   3.489
  145NSC    OBT11664   1.738   6.220   3.343
  145NSC    CBT11665   1.891   6.257   3.556
  145NSC    OBT11666   1.628   6.290   3.558
  145NSC    OBT11667   1.590   5.915   3.362
  145NSC    OBT11668   1.631   5.818   3.589
  145NSC     F111669   1.987   6.181   3.502
  145NSC     F111670   1.913   6.384   3.522
  145NSC     F111671   1.892   6.246   3.688
  145NSC    CBT11672   1.453   6.015   3.570
  145NSC     F111673   1.364   5.918   3.587
  145NSC     F111674   1.476   6.075   3.686
  145NSC     F111675   1.407   6.101   3.479
  146NSC    NBT11676   2.810   1.713   4.729
  146NSC    SBT11677   2.660   1.769   4.754
  146NSC    SBT11678   2.891   1.610   4.825
  146NSC    OBT11679   2.923   1.664   4.958
  146NSC    CBT11680   3.055   1.606   4.737
  146NSC    OBT11681   2.843   1.471   4.820
  146NSC    OBT11682   2.643   1.841   4.881
  146NSC    OBT11683   2.611   1.839   4.633
  146NSC     F111684   3.106   1.730   4.733
  146NSC     F111685   3.139   1.528   4.804
  146NSC     F111686   3.038   1.560   4.614
  146NSC    CBT11687   2.555   1.616   4.766
  146NSC     F111688   2.429   1.650   4.743
  146NSC     F111689   2.594   1.527   4.675
  146NSC     F111690   2.565   1.566   4.889
  147NSC    NBT11691   7.124   4.221   4.403
  147NSC    SBT11692   7.239   4.335   4.391
  147NSC    SBT11693   7.060   4.162   4.540
  147NSC    OBT11694   7.157   4.088   4.624
  147NSC    CBT11695   6.949   4.031   4.470
  147NSC    OBT11696   6.970   4.255   4.610
  147NSC    OBT11697   7.365   4.300   4.459
  147NSC    OBT11698   7.253   4.380   4.251
  147NSC     F111699   7.023   3.943   4.401
  147NSC     F111700   6.889   3.967   4.571
  147NSC     F111701   6.858   4.087   4.391
  147NSC    CBT11702   7.168   4.481   4.482
  147NSC     F111703   7.233   4.590   4.443
  147NSC     F111704   7.039   4.493   4.454
  147NSC     F111705   7.188   4.464   4.613
  148NSC    NBT11706   7.700   6.542   4.053
  148NSC    SBT11707   7.693   6.602   4.203
  148NSC    SBT11708   7.796   6.422   4.001
  148NSC    OBT11709   7.940   6.457   4.004
  148NSC    CBT11710   7.754   6.423   3.820
  148NSC    OBT11711   7.758   6.289   4.048
  148NSC    OBT11712   7.821   6.657   4.251
  148NSC    OBT11713   7.576   6.691   4.218
  148NSC     F111714   7.781   6.543   3.768
  148NSC     F111715   7.828   6.331   3.758
  148NSC     F111716   7.625   6.394   3.805
  148NSC    CBT11717   7.655   6.454   4.310
  148NSC     F111718   7.606   6.498   4.425
  148NSC     F111719   7.565   6.377   4.249
  148NSC     F111720   7.768   6.388   4.333
  149NSC    NBT11721   6.040   2.790   6.083
  149NSC    SBT11722   6.131   2.724   5.967
  149NSC    SBT11723   5.900   2.870   6.063
  149NSC    OBT11724   5.914   2.997   5.988
  149NSC    CBT11725   5.867   2.924   6.238
  149NSC    OBT11726   5.786   2.785   6.028
  149NSC    OBT11727   6.177   2.820   5.866
  149NSC    OBT11728   6.236   2.639   6.027
  149NSC     F111729   5.969   3.000   6.281
  149NSC     F111730   5.755   2.996   6.241
  149NSC     F111731   5.854   2.817   6.316
  149NSC    CBT11732   6.016   2.606   5.881
  149NSC     F111733   6.089   2.517   5.814
  149NSC     F111734   5.941   2.543   5.970
  149NSC     F111735   5.941   2.674   5.794
  150NSC    NBT11736   1.452   5.197   0.435
  150NSC    SBT11737   1.593   5.227   0.507
  150NSC    SBT11738   1.423   5.088   0.318
  150NSC    OBT11739   1.493   5.117   0.192
  150NSC    CBT11740   1.244   5.126   0.282
  150NSC    OBT11741   1.423   4.949   0.365
  150NSC    OBT11742   1.700   5.267   0.414
  150NSC    OBT11743   1.575   5.314   0.625
  150NSC     F111744   1.233   5.253   0.242
  150NSC     F111745   1.203   5.046   0.184
  150NSC     F111746   1.171   5.105   0.391
  150NSC    CBT11747   1.644   5.062   0.578
  150NSC     F111748   1.734   5.083   0.673
  150NSC     F111749   1.538   5.001   0.629
  150NSC     F111750   1.699   4.989   0.481
  151NSC    NBT11751   7.225   4.079   5.297
  151NSC    SBT11752   7.361   4.041   5.219
  151NSC    SBT11753   7.157   4.226   5.308
  151NSC    OBT11754   7.238   4.323   5.383
  151NSC    CBT11755   7.014   4.188   5.420
  151NSC    OBT11756   7.095   4.273   5.183
  151NSC    OBT11757   7.480   4.114   5.268
  151NSC    OBT11758   7.377   3.894   5.210
  151NSC     F111759   7.061   4.139   5.537
  151NSC     F111760   6.947   4.300   5.445
  151NSC     F111761   6.934   4.099   5.363
  151NSC    CBT11762   7.333   4.097   5.044
  151NSC     F111763   7.418   4.034   4.965
  151NSC     F111764   7.208   4.068   5.008
  151NSC     F111765   7.355   4.229   5.037
  152NSC    NBT11766   3.188   6.466   2.167
  152NSC    SBT11767   3.329   6.465   2.089
  152NSC    SBT11768   3.164   6.509   2.322
  152NSC    OBT11769   3.229   6.420   2.420
  152NSC    CBT11770   2.983   6.471   2.338
  152NSC    OBT11771   3.174   6.654   2.346
  152NSC    OBT11772   3.431   6.378   2.150
  152NSC    OBT11773   3.308   6.444   1.944
  152NSC     F111774   2.962   6.341   2.313
  152NSC     F111775   2.944   6.498   2.463
  152NSC     F111776   2.913   6.546   2.252
  152NSC    CBT11777   3.392   6.639   2.103
  152NSC     F111778   3.483   6.660   2.009
  152NSC     F111779   3.291   6.724   2.087
  152NSC     F111780   3.449   6.655   2.223
  153NSC    NBT11781   2.988   2.349   6.868
  153NSC    SBT11782   2.840   2.288   6.890
  153NSC    SBT11783   3.027   2.481   6.781
  153NSC    OBT11784   3.000   2.466   6.637
  153NSC    CBT11785   3.212   2.475   6.795
  153NSC    OBT11786   2.988   2.608   6.844
  153NSC    OBT11787   2.772   2.250   6.765
  153NSC    OBT11788   2.842   2.184   6.995
  153NSC     F111789   3.257   2.360   6.744
  153NSC     F111790   3.263   2.576   6.725
  153NSC     F111791   3.247   2.486   6.923
  153NSC    CBT11792   2.742   2.429   6.963
  153NSC     F111793   2.635   2.379   7.024
  153NSC     F111794   2.817   2.493   7.052
  153NSC     F111795   2.703   2.510   6.865
  154NSC    NBT11796   0.367   1.865   4.145
  154NSC    SBT11797   0.440   1.984   4.063
  154NSC    SBT11798   0.277   1.881   4.279
  154NSC    OBT11799   0.352   1.928   4.396
  154NSC    CBT11800   0.242   1.702   4.316
  154NSC    OBT11801   0.144   1.941   4.256
  154NSC    OBT11802   0.536   2.062   4.144
  154NSC    OBT11803   0.491   1.935   3.934
  154NSC     F111804   0.358   1.637   4.334
  154NSC     F111805   0.170   1.694   4.427
  154NSC     F111806   0.175   1.648   4.215
  154NSC    CBT11807   0.302   2.101   4.019
  154NSC     F111808   0.342   2.177   3.918
  154NSC     F111809   0.195   2.032   3.982
  154NSC     F111810   0.275   2.178   4.124
  155NSC    NBT11811   6.998   2.744   6.758
  155NSC    SBT11812   6.938   2.639   6.650
  155NSC    SBT11813   6.914   2.850   6.847
  155NSC    OBT11814   6.847   2.954   6.768
  155NSC    CBT11815   7.054   2.939   6.932
  155NSC    OBT11816   6.837   2.789   6.956
  155NSC    OBT11817   6.862   2.702   6.541
  155NSC    OBT11818   7.042   2.542   6.608
  155NSC     F111819   7.133   2.994   6.839
  155NSC     F111820   7.004   3.035   7.009
  155NSC     F111821   7.123   2.853   7.006
  155NSC    CBT11822   6.816   2.538   6.748
  155NSC     F111823   6.793   2.425   6.683
  155NSC     F111824   6.866   2.511   6.868
  155NSC     F111825   6.702   2.606   6.758
  156NSC    NBT11826   1.201   3.063   7.419
  156NSC    SBT11827   1.164   2.925   7.495
  156NSC    SBT11828   1.197   3.212   7.481
  156NSC    OBT11829   1.061   3.258   7.517
  156NSC    CBT11830   1.240   3.312   7.331
  156NSC    OBT11831   1.304   3.241   7.578
  156NSC    OBT11832   1.026   2.921   7.546
  156NSC    OBT11833   1.204   2.808   7.414
  156NSC     F111834   1.149   3.289   7.235
  156NSC     F111835   1.238   3.441   7.362
  156NSC     F111836   1.362   3.278   7.288
  156NSC    CBT11837   1.276   2.922   7.643
  156NSC     F111838   1.284   2.797   7.687
  156NSC     F111839   1.397   2.965   7.608
  156NSC     F111840   1.224   2.999   7.739
  157NSC    NBT11841   6.606   5.113   5.215
  157NSC    SBT11842   6.598   5.272   5.189
  157NSC    SBT11843   6.489   5.020   5.279
  157NSC    OBT11844   6.459   5.051   5.420
  157NSC    CBT11845   6.579   4.857   5.286
  157NSC    OBT11846   6.375   4.996   5.190
  157NSC    OBT11847   6.574   5.351   5.311
  157NSC    OBT11848   6.712   5.317   5.106
  157NSC     F111849   6.688   4.870   5.362
  157NSC     F111850   6.498   4.766   5.340
  157NSC     F111851   6.613   4.819   5.163
  157NSC    CBT11852   6.449   5.295   5.080
  157NSC     F111853   6.458   5.412   5.020
  157NSC     F111854   6.445   5.198   4.990
  157NSC     F111855   6.340   5.294   5.157
  158NSC    NBT11856   3.041   2.575   1.187
  158NSC    SBT11857   3.166   2.473   1.179
  158NSC    SBT11858   2.888   2.545   1.142
  158NSC    OBT11859   2.872   2.520   0.997
  158NSC    CBT11860   2.812   2.712   1.169
  158NSC    OBT11861   2.815   2.455   1.233
  158NSC    OBT11862   3.194   2.423   1.043
  158NSC    OBT11863   3.283   2.527   1.251
  158NSC     F111864   2.876   2.802   1.093
  158NSC     F111865   2.684   2.708   1.134
  158NSC     F111866   2.823   2.745   1.297
  158NSC    CBT11867   3.112   2.326   1.279
  158NSC     F111868   3.219   2.257   1.314
  158NSC     F111869   3.048   2.367   1.388
  158NSC     F111870   3.033   2.249   1.204
  159NSC    NBT11871   7.292   5.567   1.205
  159NSC    SBT11872   7.414   5.502   1.123
  159NSC    SBT11873   7.300   5.694   1.306
  159NSC    OBT11874   7.381   5.669   1.427
  159NSC    CBT11875   7.125   5.698   1.368
  159NSC    OBT11876   7.319   5.824   1.239
  159NSC    OBT11877   7.524   5.453   1.208
  159NSC    OBT11878   7.364   5.405   1.023
  159NSC     F111879   7.097   5.581   1.428
  159NSC     F111880   7.113   5.796   1.458
  159NSC     F111881   7.042   5.719   1.267
  159NSC    CBT11882   7.483   5.642   1.022
  159NSC     F111883   7.554   5.592   0.922
  159NSC     F111884   7.384   5.716   0.974
  159NSC     F111885   7.564   5.715   1.100
  160NSC    NBT11886   0.367   7.080   1.569
  160NSC    SBT11887   0.275   7.208   1.603
  160NSC    SBT11888   0.325   6.924   1.585
  160NSC    OBT11889   0.301   6.882   1.725
  160NSC    CBT11890   0.486   6.842   1.540
  160NSC    OBT11891   0.229   6.876   1.484
  160NSC    OBT11892   0.229   7.214   1.743
  160NSC    OBT11893   0.338   7.332   1.552
  160NSC     F111894   0.581   6.883   1.624
  160NSC     F111895   0.472   6.710   1.550
  160NSC     F111896   0.518   6.874   1.415
  160NSC    CBT11897   0.123   7.185   1.498
  160NSC     F111898   0.062   7.302   1.486
  160NSC     F111899   0.158   7.140   1.378
  160NSC     F111900   0.041   7.100   1.559
  161NSC    NBT11901   7.554   5.027   4.395
  161NSC    SBT11902   7.470   5.164   4.384
  161NSC    SBT11903   7.499   4.883   4.447
  161NSC    OBT11904   7.461   4.883   4.590
  161NSC    CBT11905   7.656   4.784   4.441
  161NSC    OBT11906   7.408   4.816   4.353
  161NSC    OBT11907   7.414   5.210   4.512
  161NSC    OBT11908   7.547   5.266   4.309
  161NSC     F111909   7.747   4.841   4.522
  161NSC     F111910   7.631   4.661   4.485
  161NSC     F111911   7.701   4.779   4.316
  161NSC    CBT11912   7.327   5.122   4.274
  161NSC     F111913   7.277   5.234   4.225
  161NSC     F111914   7.368   5.044   4.174
  161NSC     F111915   7.233   5.061   4.347
  162NSC    NBT11916   2.999   4.804   4.144
  162NSC    SBT11917   2.838   4.788   4.134
  162NSC    SBT11918   3.105   4.688   4.188
  162NSC    OBT11919   3.090   4.644   4.327
  162NSC    CBT11920   3.262   4.787   4.187
  162NSC    OBT11921   3.125   4.584   4.086
  162NSC    OBT11922   2.774   4.748   4.260
  162NSC    OBT11923   2.779   4.906   4.067
  162NSC     F111924   3.251   4.888   4.274
  162NSC     F111925   3.363   4.708   4.224
  162NSC     F111926   3.285   4.834   4.065
  162NSC    CBT11927   2.813   4.648   4.014
  162NSC     F111928   2.689   4.655   3.967
  162NSC     F111929   2.900   4.659   3.914
  162NSC     F111930   2.828   4.533   4.079
  163NSC    NBT11931   4.049   2.998   6.375
  163NSC    SBT11932   4.156   3.118   6.354
  163NSC    SBT11933   4.015   2.921   6.514
  163NSC    OBT11934   4.128   2.844   6.569
  163NSC    CBT11935   3.896   2.793   6.453
  163NSC    OBT11936   3.937   3.002   6.610
  163NSC    OBT11937   4.294   3.082   6.392
  163NSC    OBT11938   4.140   3.177   6.220
  163NSC     F111939   3.957   2.716   6.361
  163NSC     F111940   3.858   2.716   6.555
  163NSC     F111941   3.790   2.852   6.399
  163NSC    CBT11942   4.101   3.250   6.472
  163NSC     F111943   4.153   3.365   6.434
  163NSC     F111944   3.968   3.259   6.471
  163NSC     F111945   4.145   3.220   6.594
  164NSC    NBT11946   4.407   4.023   2.031
  164NSC    SBT11947   4.554   3.958   2.012
  164NSC    SBT11948   4.269   3.943   2.059
  164NSC    OBT11949   4.227   3.856   1.948
  164NSC    CBT11950   4.148   4.084   2.056
  164NSC    OBT11951   4.258   3.887   2.195
  164NSC    OBT11952   4.563   3.863   1.900
  164NSC    OBT11953   4.658   4.064   2.013
  164NSC     F111954   4.154   4.144   1.936
  164NSC     F111955   4.025   4.036   2.074
  164NSC     F111956   4.178   4.170   2.152
  164NSC    CBT11957   4.583   3.861   2.167
  164NSC     F111958   4.713   3.840   2.181
  164NSC     F111959   4.538   3.930   2.272
  164NSC     F111960   4.521   3.744   2.157
  165NSC    NBT11961   1.980   4.279   7.254
  165NSC    SBT11962   1.991   4.330   7.407
  165NSC    SBT11963   1.959   4.371   7.122
  165NSC    OBT11964   1.830   4.441   7.118
  165NSC    CBT11965   1.945   4.239   6.992
  165NSC    OBT11966   2.078   4.449   7.083
  165NSC    OBT11967   1.873   4.405   7.453
  165NSC    OBT11968   2.035   4.220   7.495
  165NSC     F111969   1.841   4.160   7.021
  165NSC     F111970   1.923   4.297   6.874
  165NSC     F111971   2.057   4.168   6.987
  165NSC    CBT11972   2.134   4.450   7.405
  165NSC     F111973   2.178   4.464   7.529
  165NSC     F111974   2.231   4.402   7.329
  165NSC     F111975   2.090   4.567   7.360
  166NSC    NBT11976   2.335   6.615   0.392
  166NSC    SBT11977   2.176   6.632   0.417
  166NSC    SBT11978   2.447   6.733   0.395
  166NSC    OBT11979   2.430   6.833   0.287
  166NSC    CBT11980   2.597   6.636   0.345
  166NSC    OBT11981   2.477   6.784   0.529
  166NSC    OBT11982   2.111   6.724   0.322
  166NSC    OBT11983   2.112   6.499   0.431
  166NSC     F111984   2.578   6.581   0.225
  166NSC     F111985   2.702   6.719   0.339
  166NSC     F111986   2.621   6.541   0.436
  166NSC    CBT11987   2.164   6.710   0.585
  166NSC     F111988   2.042   6.689   0.632
  166NSC     F111989   2.253   6.655   0.666
  166NSC     F111990   2.184   6.841   0.573
  167NSC    NBT11991   7.212   5.756   2.636
  167NSC    SBT11992   7.201   5.710   2.791
  167NSC    SBT11993   7.300   5.684   2.520
  167NSC    OBT11994   7.445   5.691   2.542
  167NSC    CBT11995   7.269   5.801   2.379
  167NSC    OBT11996   7.245   5.555   2.474
  167NSC    OBT11997   7.331   5.708   2.861
  167NSC    OBT11998   7.093   5.784   2.859
  167NSC     F111999   7.312   5.924   2.413
  167NSC     F112000   7.337   5.760   2.272
  167NSC     F112001   7.139   5.805   2.351
  167NSC    CBT12002   7.142   5.534   2.783
  167NSC     F112003   7.090   5.502   2.901
  167NSC     F112004   7.049   5.523   2.689
  167NSC     F112005   7.245   5.455   2.758
  168NSC    NBT12006   2.150   0.546   3.971
  168NSC    SBT12007   2.094   0.696   3.953
  168NSC    SBT12008   2.068   0.417   4.027
  168NSC    OBT12009   2.029   0.430   4.168
  168NSC    CBT12010   2.204   0.290   4.028
  168NSC    OBT12011   1.968   0.364   3.934
  168NSC    OBT12012   2.045   0.757   4.078
  168NSC    OBT12013   2.189   0.779   3.876
  168NSC     F112014   2.303   0.332   4.108
  168NSC     F112015   2.155   0.176   4.076
  168NSC     F112016   2.249   0.272   3.905
  168NSC    CBT12017   1.946   0.677   3.842
  168NSC     F112018   1.919   0.795   3.787
  168NSC     F112019   1.973   0.589   3.746
  168NSC     F112020   1.842   0.638   3.915
  169NSC    NBT12021   2.053   2.229   2.442
  169NSC    SBT12022   1.986   2.376   2.446
  169NSC    SBT12023   2.200   2.191   2.385
  169NSC    OBT12024   2.216   2.213   2.240
  169NSC    CBT12025   2.196   2.006   2.404
  169NSC    OBT12026   2.311   2.235   2.472
  169NSC    OBT12027   1.974   2.440   2.314
  169NSC    OBT12028   1.863   2.375   2.528
  169NSC     F112029   2.094   1.957   2.332
  169NSC     F112030   2.310   1.955   2.358
  169NSC     F112031   2.181   1.975   2.532
  169NSC    CBT12032   2.107   2.479   2.544
  169NSC     F112033   2.044   2.587   2.589
  169NSC     F112034   2.153   2.409   2.647
  169NSC     F112035   2.206   2.517   2.463
  170NSC    NBT12036   6.569   4.318   5.096
  170NSC    SBT12037   6.487   4.181   5.125
  170NSC    SBT12038   6.506   4.462   5.054
  170NSC    OBT12039   6.441   4.462   4.922
  170NSC    CBT12040   6.662   4.558   5.028
  170NSC    OBT12041   6.437   4.531   5.163
  170NSC    OBT12042   6.405   4.135   5.011
  170NSC    OBT12043   6.575   4.079   5.184
  170NSC     F112044   6.736   4.500   4.932
  170NSC     F112045   6.631   4.682   4.989
  170NSC     F112046   6.731   4.564   5.141
  170NSC    CBT12047   6.368   4.227   5.260
  170NSC     F112048   6.327   4.115   5.319
  170NSC     F112049   6.429   4.305   5.349
  170NSC     F112050   6.263   4.288   5.206
  171NSC    NBT12051   2.578   5.650   4.744
  171NSC    SBT12052   2.517   5.603   4.886
  171NSC    SBT12053   2.722   5.720   4.718
  171NSC    OBT12054   2.736   5.853   4.779
  171NSC    CBT12055   2.711   5.753   4.536
  171NSC    OBT12056   2.837   5.628   4.732
  171NSC    OBT12057   2.505   5.712   4.985
  171NSC    OBT12058   2.395   5.522   4.866
  171NSC     F112059   2.606   5.833   4.512
  171NSC     F112060   2.822   5.815   4.496
  171NSC     F112061   2.696   5.638   4.470
  171NSC    CBT12062   2.643   5.484   4.953
  171NSC     F112063   2.585   5.409   5.046
  171NSC     F112064   2.689   5.407   4.855
  171NSC     F112065   2.742   5.554   5.009
  172NSC    NBT12066   6.875   7.067   1.912
  172NSC    SBT12067   7.019   7.140   1.899
  172NSC    SBT12068   6.769   7.083   2.034
  172NSC    OBT12069   6.818   7.031   2.163
  172NSC    CBT12070   6.640   6.960   1.981
  172NSC    OBT12071   6.699   7.213   2.036
  172NSC    OBT12072   7.111   7.111   2.011
  172NSC    OBT12073   7.075   7.120   1.764
  172NSC     F112074   6.696   6.839   1.972
  172NSC     F112075   6.543   6.957   2.073
  172NSC     F112076   6.589   6.997   1.864
  172NSC    CBT12077   6.980   7.321   1.909
  172NSC     F112078   7.082   7.389   1.858
  172NSC     F112079   6.870   7.347   1.839
  172NSC     F112080   6.965   7.355   2.037
  173NSC    NBT12081   5.735   3.387   6.129
  173NSC    SBT12082   5.850   3.480   6.065
  173NSC    SBT12083   5.674   3.251   6.065
  173NSC    OBT12084   5.601   3.272   5.939
  173NSC    CBT12085   5.541   3.213   6.190
  173NSC    OBT12086   5.765   3.135   6.071
  173NSC    OBT12087   5.817   3.534   5.932
  173NSC    OBT12088   5.897   3.580   6.164
  173NSC     F112089   5.455   3.316   6.195
  173NSC     F112090   5.476   3.103   6.152
  173NSC     F112091   5.596   3.193   6.309
  173NSC    CBT12092   5.995   3.366   6.042
  173NSC     F112093   6.105   3.438   6.031
  173NSC     F112094   6.005   3.285   6.147
  173NSC     F112095   5.977   3.296   5.930
  174NSC    NBT12096   7.426   3.716   2.081
  174NSC    SBT12097   7.494   3.676   2.222
  174NSC    SBT12098   7.461   3.847   1.991
  174NSC    OBT12099   7.425   3.974   2.056
  174NSC    CBT12100   7.335   3.827   1.856
  174NSC    OBT12101   7.591   3.841   1.923
  174NSC    OBT12102   7.478   3.777   2.328
  174NSC    OBT12103   7.455   3.538   2.261
  174NSC     F112104   7.212   3.828   1.909
  174NSC     F112105   7.346   3.930   1.772
  174NSC     F112106   7.357   3.713   1.791
  174NSC    CBT12107   7.676   3.666   2.186
  174NSC     F112108   7.734   3.594   2.280
  174NSC     F112109   7.695   3.608   2.067
  174NSC     F112110   7.727   3.789   2.187
  175NSC    NBT12111   2.155   0.905   5.886
  175NSC    SBT12112   2.279   0.813   5.839
  175NSC    SBT12113   2.140   0.984   6.027
  175NSC    OBT12114   2.131   0.895   6.144
  175NSC    CBT12115   1.969   1.054   6.008
  175NSC    OBT12116   2.228   1.102   6.039
  175NSC    OBT12117   2.305   0.699   5.929
  175NSC    OBT12118   2.267   0.779   5.696
  175NSC     F112119   1.882   0.954   5.992
  175NSC     F112120   1.937   1.121   6.118
  175NSC     F112121   1.965   1.135   5.903
  175NSC    CBT12122   2.426   0.925   5.850
  175NSC     F112123   2.523   0.874   5.775
  175NSC     F112124   2.394   1.046   5.805
  175NSC     F112125   2.467   0.930   5.977
  176NSC    NBT12126   0.279   7.318   4.527
  176NSC    SBT12127   0.387   7.388   4.428
  176NSC    SBT12128   0.166   7.393   4.615
  176NSC    OBT12129   0.220   7.481   4.720
  176NSC    CBT12130   0.095   7.248   4.708
  176NSC    OBT12131   0.053   7.446   4.536
  176NSC    OBT12132   0.474   7.486   4.495
  176NSC    OBT12133   0.457   7.286   4.347
  176NSC     F112134   0.192   7.191   4.780
  176NSC     F112135   0.000   7.292   4.790
  176NSC     F112136   0.044   7.161   4.622
  176NSC    CBT12137   0.283   7.483   4.307
  176NSC     F112138   0.356   7.508   4.200
  176NSC     F112139   0.177   7.411   4.273
  176NSC     F112140   0.247   7.598   4.363
  177NSC    NBT12141   3.076   7.562   4.781
  177NSC    SBT12142   3.020   7.620   4.922
  177NSC    SBT12143   3.214   7.604   4.708
  177NSC    OBT12144   3.217   7.744   4.662
  177NSC    CBT12145   3.199   7.505   4.551
  177NSC    OBT12146   3.335   7.552   4.773
  177NSC    OBT12147   3.000   7.766   4.922
  177NSC    OBT12148   2.905   7.540   4.969
  177NSC     F112149   3.087   7.542   4.486
  177NSC     F112150   3.304   7.529   4.474
  177NSC     F112151   3.193   7.375   4.581
  177NSC    CBT12152   3.155   7.585   5.044
  177NSC     F112153   3.104   7.589   5.166
  177NSC     F112154   3.206   7.464   5.021
  177NSC     F112155   3.249   7.679   5.032
  178NSC    NBT12156   5.465   2.089   1.679
  178NSC    SBT12157   5.391   2.223   1.732
  178NSC    SBT12158   5.408   1.938   1.687
  178NSC    OBT12159   5.393   1.887   1.824
  178NSC    CBT12160   5.554   1.845   1.619
  178NSC    OBT12161   5.298   1.910   1.593
  178NSC    OBT12162   5.359   2.221   1.876
  178NSC    OBT12163   5.463   2.344   1.685
  178NSC     F112164   5.661   1.867   1.696
  178NSC     F112165   5.527   1.714   1.620
  178NSC     F112166   5.578   1.884   1.494
  178NSC    CBT12167   5.229   2.225   1.642
  178NSC     F112168   5.181   2.349   1.645
  178NSC     F112169   5.248   2.188   1.515
  178NSC     F112170   5.144   2.143   1.704
  179NSC    NBT12171   2.330   1.232   2.897
  179NSC    SBT12172   2.311   1.071   2.902
  179NSC    SBT12173   2.461   1.316   2.942
  179NSC    OBT12174   2.491   1.307   3.087
  179NSC    CBT12175   2.398   1.489   2.919
  179NSC    OBT12176   2.575   1.304   2.850
  179NSC    OBT12177   2.327   1.014   3.037
  179NSC    OBT12178   2.189   1.031   2.830
  179NSC     F112179   2.291   1.509   2.997
  179NSC     F112180   2.493   1.575   2.955
  179NSC     F112181   2.366   1.509   2.791
  179NSC    CBT12182   2.452   1.006   2.799
  179NSC     F112183   2.423   0.882   2.762
  179NSC     F112184   2.468   1.082   2.692
  179NSC     F112185   2.562   1.004   2.874
  180NSC    NBT12186   6.616   4.511   3.967
  180NSC    SBT12187   6.564   4.362   3.999
  180NSC    SBT12188   6.750   4.582   4.026
  180NSC    OBT12189   6.747   4.603   4.172
  180NSC    CBT12190   6.731   4.752   3.954
  180NSC    OBT12191   6.875   4.530   3.968
  180NSC    OBT12192   6.540   4.336   4.142
  180NSC    OBT12193   6.453   4.325   3.909
  180NSC     F112194   6.616   4.806   3.998
  180NSC     F112195   6.833   4.828   3.994
  180NSC     F112196   6.731   4.745   3.821
  180NSC    CBT12197   6.705   4.252   3.949
  180NSC     F112198   6.659   4.129   3.931
  180NSC     F112199   6.758   4.297   3.836
  180NSC     F112200   6.796   4.251   4.047
  181NSC    NBT12201   7.713   6.848   3.128
  181NSC    SBT12202   7.853   6.915   3.085
  181NSC    SBT12203   7.568   6.873   3.059
  181NSC    OBT12204   7.518   7.011   3.073
  181NSC    CBT12205   7.460   6.774   3.173
  181NSC    OBT12206   7.553   6.810   2.927
  181NSC    OBT12207   7.854   7.062   3.089
  181NSC    OBT12208   7.966   6.849   3.155
  181NSC     F112209   7.471   6.822   3.298
  181NSC     F112210   7.333   6.784   3.133
  181NSC     F112211   7.497   6.646   3.169
  181NSC    CBT12212   7.874   6.867   2.906
  181NSC     F112213   8.001   6.880   2.873
  181NSC     F112214   7.835   6.742   2.889
  181NSC     F112215   7.801   6.951   2.831
  182NSC    NBT12216   2.610   1.841   3.267
  182NSC    SBT12217   2.569   1.738   3.385
  182NSC    SBT12218   2.747   1.839   3.180
  182NSC    OBT12219   2.869   1.865   3.259
  182NSC    CBT12220   2.724   1.993   3.079
  182NSC    OBT12221   2.754   1.730   3.081
  182NSC    OBT12222   2.665   1.734   3.497
  182NSC    OBT12223   2.427   1.756   3.423
  182NSC     F112224   2.712   2.098   3.161
  182NSC     F112225   2.830   2.010   3.001
  182NSC     F112226   2.615   1.981   3.004
  182NSC    CBT12227   2.575   1.570   3.304
  182NSC     F112228   2.504   1.486   3.377
  182NSC     F112229   2.524   1.578   3.182
  182NSC     F112230   2.702   1.529   3.300
  183NSC    NBT12231   6.231   1.049   3.808
  183NSC    SBT12232   6.130   0.931   3.853
  183NSC    SBT12233   6.393   1.043   3.805
  183NSC    OBT12234   6.454   1.028   3.938
  183NSC    CBT12235   6.432   1.217   3.755
  183NSC    OBT12236   6.448   0.960   3.697
  183NSC    OBT12237   6.151   0.885   3.991
  183NSC    OBT12238   5.990   0.966   3.818
  183NSC     F112239   6.381   1.302   3.846
  183NSC     F112240   6.564   1.233   3.750
  183NSC     F112241   6.379   1.242   3.635
  183NSC    CBT12242   6.173   0.789   3.742
  183NSC     F112243   6.071   0.704   3.741
  183NSC     F112244   6.195   0.833   3.619
  183NSC     F112245   6.281   0.727   3.791
  184NSC    NBT12246   7.159   1.436   1.112
  184NSC    SBT12247   7.039   1.329   1.120
  184NSC    SBT12248   7.148   1.590   1.060
  184NSC    OBT12249   7.114   1.603   0.918
  184NSC    CBT12250   7.327   1.640   1.070
  184NSC    OBT12251   7.079   1.680   1.154
  184NSC    OBT12252   6.973   1.302   0.990
  184NSC    OBT12253   7.081   1.209   1.195
  184NSC     F112254   7.400   1.560   0.990
  184NSC     F112255   7.339   1.765   1.027
  184NSC     F112256   7.370   1.630   1.195
  184NSC    CBT12257   6.911   1.410   1.228
  184NSC     F112258   6.830   1.316   1.275
  184NSC     F112259   6.971   1.472   1.329
  184NSC     F112260   6.841   1.496   1.155
  185NSC    NBT12261   6.508   0.683   5.912
  185NSC    SBT12262   6.524   0.745   5.763
  185NSC    SBT12263   6.563   0.748   6.050
  185NSC    OBT12264   6.710   0.754   6.058
  185NSC    CBT12265   6.517   0.613   6.170
  185NSC    OBT12266   6.488   0.866   6.096
  185NSC    OBT12267   6.664   0.766   5.722
  185NSC    OBT12268   6.440   0.672   5.667
  185NSC     F112269   6.578   0.499   6.133
  185NSC     F112270   6.558   0.647   6.292
  185NSC     F112271   6.385   0.597   6.170
  185NSC    CBT12272   6.447   0.914   5.775
  185NSC     F112273   6.417   0.955   5.653
  185NSC     F112274   6.337   0.908   5.849
  185NSC     F112275   6.536   0.998   5.829
  186NSC    NBT12276   0.323   7.660   4.823
  186NSC    SBT12277   0.445   7.593   4.905
  186NSC    SBT12278   0.334   7.744   4.684
  186NSC    OBT12279   0.409   7.870   4.696
  186NSC    CBT12280   0.157   7.797   4.665
  186NSC    OBT12281   0.361   7.661   4.566
  186NSC    OBT12282   0.550   7.688   4.946
  186NSC    OBT12283   0.394   7.505   5.012
  186NSC     F112284   0.121   7.870   4.771
  186NSC     F112285   0.145   7.871   4.555
  186NSC     F112286   0.079   7.690   4.655
  186NSC    CBT12287   0.524   7.478   4.782
  186NSC     F112288   0.596   7.388   4.848
  186NSC     F112289   0.430   7.416   4.712
  186NSC     F112290   0.605   7.548   4.703
  187NSC    NBT12291   3.818   1.078   3.550
  187NSC    SBT12292   3.831   1.022   3.701
  187NSC    SBT12293   3.931   1.157   3.465
  187NSC    OBT12294   3.965   1.289   3.521
  187NSC    CBT12295   3.835   1.196   3.311
  187NSC    OBT12296   4.043   1.073   3.420
  187NSC    OBT12297   3.861   1.127   3.801
  187NSC    OBT12298   3.717   0.934   3.734
  187NSC     F112299   3.728   1.269   3.343
  187NSC     F112300   3.912   1.266   3.228
  187NSC     F112301   3.798   1.083   3.252
  187NSC    CBT12302   3.979   0.910   3.696
  187NSC     F112303   3.974   0.828   3.801
  187NSC     F112304   3.978   0.839   3.584
  187NSC     F112305   4.090   0.984   3.705
  188NSC    NBT12306   4.849   3.322   1.385
  188NSC    SBT12307   4.911   3.184   1.442
  188NSC    SBT12308   4.884   3.393   1.243
  188NSC    OBT12309   5.023   3.440   1.233
  188NSC    CBT12310   4.784   3.549   1.259
  188NSC    OBT12311   4.827   3.324   1.126
  188NSC    OBT12312   5.058   3.186   1.456
  188NSC    OBT12313   4.837   3.140   1.562
  188NSC     F112314   4.825   3.617   1.367
  188NSC     F112315   4.802   3.624   1.151
  188NSC     F112316   4.655   3.518   1.271
  188NSC    CBT12317   4.872   3.058   1.311
  188NSC     F112318   4.879   2.938   1.365
  188NSC     F112319   4.748   3.079   1.265
  188NSC     F112320   4.961   3.068   1.213
  189NSC    NBT12321   7.391   2.548   5.430
  189NSC    SBT12322   7.437   2.393   5.430
  189NSC    SBT12323   7.479   2.676   5.477
  189NSC    OBT12324   7.511   2.676   5.621
  189NSC    CBT12325   7.353   2.811   5.459
  189NSC    OBT12326   7.587   2.712   5.384
  189NSC    OBT12327   7.476   2.343   5.563
  189NSC    OBT12328   7.339   2.309   5.357
  189NSC     F112329   7.247   2.784   5.537
  189NSC     F112330   7.407   2.926   5.497
  189NSC     F112331   7.314   2.819   5.332
  189NSC    CBT12332   7.590   2.391   5.326
  189NSC     F112333   7.612   2.266   5.285
  189NSC     F112334   7.574   2.470   5.220
  189NSC     F112335   7.694   2.431   5.400
  190NSC    NBT12336   5.620   3.672   0.801
  190NSC    SBT12337   5.764   3.631   0.862
  190NSC    SBT12338   5.478   3.672   0.881
  190NSC    OBT12339   5.433   3.538   0.923
  190NSC    CBT12340   5.363   3.718   0.742
  190NSC    OBT12341   5.464   3.781   0.979
  190NSC    OBT12342   5.770   3.493   0.914
  190NSC    OBT12343   5.872   3.667   0.767
  190NSC     F112344   5.372   3.626   0.645
  190NSC     F112345   5.238   3.720   0.788
  190NSC     F112346   5.396   3.838   0.695
  190NSC    CBT12347   5.787   3.744   1.007
  190NSC     F112348   5.917   3.748   1.037
  190NSC     F112349   5.745   3.866   0.976
  190NSC     F112350   5.720   3.695   1.111
  191NSC    NBT12351   3.208   1.867   1.808
  191NSC    SBT12352   3.140   1.744   1.729
  191NSC    SBT12353   3.325   1.965   1.753
  191NSC    OBT12354   3.453   1.897   1.728
  191NSC    CBT12355   3.356   2.068   1.904
  191NSC    OBT12356   3.280   2.061   1.651
  191NSC    OBT12357   3.235   1.640   1.687
  191NSC    OBT12358   3.021   1.695   1.802
  191NSC     F112359   3.394   1.988   2.005
  191NSC     F112360   3.454   2.155   1.879
  191NSC     F112361   3.245   2.134   1.937
  191NSC    CBT12362   3.072   1.820   1.574
  191NSC     F112363   2.980   1.740   1.524
  191NSC     F112364   3.018   1.938   1.602
  191NSC     F112365   3.171   1.833   1.486
  192NSC    NBT12366   2.012   7.727   6.736
  192NSC    SBT12367   1.941   7.583   6.752
  192NSC    SBT12368   2.166   7.765   6.772
  192NSC    OBT12369   2.198   7.754   6.915
  192NSC    CBT12370   2.163   7.947   6.739
  192NSC    OBT12371   2.264   7.711   6.677
  192NSC    OBT12372   1.943   7.530   6.889
  192NSC    OBT12373   1.809   7.582   6.686
  192NSC     F112374   2.072   8.006   6.818
  192NSC     F112375   2.283   7.998   6.766
  192NSC     F112376   2.133   7.970   6.611
  192NSC    CBT12377   2.046   7.469   6.649
  192NSC     F112378   1.976   7.360   6.621
  192NSC     F112379   2.082   7.530   6.537
  192NSC     F112380   2.154   7.434   6.720
  193NSC    NBT12381   3.507   1.875   3.486
  193NSC    SBT12382   3.444   1.772   3.378
  193NSC    SBT12383   3.664   1.888   3.526
  193NSC    OBT12384   3.719   1.769   3.594
  193NSC    CBT12385   3.652   2.016   3.661
  193NSC    OBT12386   3.748   1.951   3.423
  193NSC    OBT12387   3.470   1.630   3.410
  193NSC    OBT12388   3.303   1.806   3.350
  193NSC     F112389   3.573   1.970   3.759
  193NSC     F112390   3.773   2.039   3.710
  193NSC     F112391   3.602   2.129   3.611
  193NSC    CBT12392   3.535   1.808   3.220
  193NSC     F112393   3.463   1.761   3.119
  193NSC     F112394   3.550   1.939   3.207
  193NSC     F112395   3.653   1.746   3.223
  194NSC    NBT12396   3.799   1.785   7.471
  194NSC    SBT12397   3.896   1.907   7.516
  194NSC    SBT12398   3.845   1.643   7.408
  194NSC    OBT12399   3.908   1.655   7.275
  194NSC    CBT12400   3.679   1.567   7.374
  194NSC    OBT12401   3.909   1.552   7.504
  194NSC    OBT12402   3.980   1.960   7.407
  194NSC    OBT12403   3.820   2.008   7.592
  194NSC     F112404   3.611   1.646   7.290
  194NSC     F112405   3.697   1.448   7.317
  194NSC     F112406   3.612   1.553   7.488
  194NSC    CBT12407   4.012   1.831   7.640
  194NSC     F112408   4.066   1.928   7.712
  194NSC     F112409   3.945   1.748   7.719
  194NSC     F112410   4.109   1.767   7.574
  195NSC    NBT12411   5.598   7.448   5.391
  195NSC    SBT12412   5.670   7.303   5.381
  195NSC    SBT12413   5.665   7.586   5.444
  195NSC    OBT12414   5.703   7.584   5.586
  195NSC    CBT12415   5.518   7.699   5.437
  195NSC    OBT12416   5.762   7.645   5.350
  195NSC    OBT12417   5.722   7.253   5.510
  195NSC    OBT12418   5.585   7.208   5.306
  195NSC     F112419   5.422   7.651   5.516
  195NSC     F112420   5.554   7.820   5.480
  195NSC     F112421   5.474   7.707   5.311
  195NSC    CBT12422   5.817   7.332   5.272
  195NSC     F112423   5.857   7.216   5.224
  195NSC     F112424   5.784   7.413   5.172
  195NSC     F112425   5.915   7.385   5.345
  196NSC    NBT12426   3.950   3.490   2.717
  196NSC    SBT12427   4.072   3.556   2.634
  196NSC    SBT12428   3.827   3.570   2.786
  196NSC    OBT12429   3.868   3.658   2.897
  196NSC    CBT12430   3.740   3.428   2.870
  196NSC    OBT12431   3.728   3.623   2.691
  196NSC    OBT12432   4.152   3.653   2.711
  196NSC    OBT12433   4.150   3.450   2.565
  196NSC     F112434   3.824   3.370   2.957
  196NSC     F112435   3.635   3.476   2.937
  196NSC     F112436   3.699   3.341   2.779
  196NSC    CBT12437   3.990   3.651   2.497
  196NSC     F112438   4.078   3.672   2.401
  196NSC     F112439   3.887   3.581   2.449
  196NSC     F112440   3.949   3.768   2.545
  197NSC    NBT12441   0.667   5.326   7.058
  197NSC    SBT12442   0.765   5.197   7.068
  197NSC    SBT12443   0.507   5.324   7.034
  197NSC    OBT12444   0.467   5.272   6.902
  197NSC    CBT12445   0.473   5.507   7.023
  197NSC    OBT12446   0.428   5.278   7.150
  197NSC    OBT12447   0.764   5.112   6.947
  197NSC    OBT12448   0.899   5.238   7.116
  197NSC     F112449   0.544   5.559   6.922
  197NSC     F112450   0.344   5.526   6.999
  197NSC     F112451   0.507   5.565   7.138
  197NSC    CBT12452   0.693   5.095   7.206
  197NSC     F112453   0.787   5.012   7.249
  197NSC     F112454   0.654   5.175   7.305
  197NSC     F112455   0.591   5.024   7.158
  198NSC    NBT12456   2.244   3.271   6.005
  198NSC    SBT12457   2.228   3.142   5.908
  198NSC    SBT12458   2.150   3.309   6.131
  198NSC    OBT12459   2.011   3.341   6.095
  198NSC    CBT12460   2.225   3.473   6.178
  198NSC    OBT12461   2.171   3.223   6.249
  198NSC    OBT12462   2.097   3.134   5.840
  198NSC    OBT12463   2.346   3.128   5.820
  198NSC     F112464   2.215   3.557   6.075
  198NSC     F112465   2.158   3.523   6.282
  198NSC     F112466   2.353   3.456   6.212
  198NSC    CBT12467   2.236   2.996   6.024
  198NSC     F112468   2.266   2.888   5.953
  198NSC     F112469   2.330   3.018   6.115
  198NSC     F112470   2.117   2.979   6.080
  199NSC    NBT12471   2.549   3.622   3.948
  199NSC    SBT12472   2.407   3.684   3.994
  199NSC    SBT12473   2.695   3.658   4.009
  199NSC    OBT12474   2.736   3.797   3.984
  199NSC    CBT12475   2.803   3.557   3.897
  199NSC    OBT12476   2.719   3.604   4.144
  199NSC    OBT12477   2.398   3.830   3.980
  199NSC    OBT12478   2.295   3.608   3.933
  199NSC     F112479   2.784   3.596   3.770
  199NSC     F112480   2.930   3.577   3.930
  199NSC     F112481   2.772   3.428   3.910
  199NSC    CBT12482   2.397   3.647   4.176
  199NSC     F112483   2.270   3.655   4.213
  199NSC     F112484   2.442   3.524   4.199
  199NSC     F112485   2.468   3.738   4.242
  200NSC    NBT12486   1.053   0.348   4.567
  200NSC    SBT12487   1.035   0.430   4.705
  200NSC    SBT12488   1.105   0.196   4.551
  200NSC    OBT12489   1.246   0.176   4.592
  200NSC    CBT12490   1.109   0.182   4.365
  200NSC    OBT12491   1.008   0.094   4.594
  200NSC    OBT12492   1.159   0.443   4.784
  200NSC    OBT12493   0.962   0.556   4.682
  200NSC     F112494   1.193   0.275   4.316
  200NSC     F112495   1.154   0.062   4.332
  200NSC     F112496   0.987   0.200   4.317
  200NSC    CBT12497   0.919   0.326   4.806
  200NSC     F112498   0.865   0.401   4.901
  200NSC     F112499   0.823   0.277   4.728
  200NSC     F112500   0.989   0.227   4.864
  201NSC    NBT12501   3.674   1.373   3.650
  201NSC    SBT12502   3.625   1.305   3.788
  201NSC    SBT12503   3.693   1.531   3.621
  201NSC    OBT12504   3.567   1.608   3.625
  201NSC    CBT12505   3.737   1.526   3.440
  201NSC    OBT12506   3.810   1.591   3.687
  201NSC    OBT12507   3.491   1.350   3.833
  201NSC    OBT12508   3.644   1.159   3.784
  201NSC     F112509   3.638   1.469   3.372
  201NSC     F112510   3.754   1.650   3.396
  201NSC     F112511   3.850   1.457   3.424
  201NSC    CBT12512   3.746   1.366   3.915
  201NSC     F112513   3.741   1.286   4.020
  201NSC     F112514   3.869   1.365   3.864
  201NSC     F112515   3.711   1.490   3.953
  202NSC    NBT12516   6.479   1.330   7.623
  202NSC    SBT12517   6.377   1.259   7.520
  202NSC    SBT12518   6.563   1.466   7.597
  202NSC    OBT12519   6.664   1.455   7.490
  202NSC    CBT12520   6.662   1.473   7.754
  202NSC    OBT12521   6.481   1.589   7.599
  202NSC    OBT12522   6.439   1.220   7.391
  202NSC    OBT12523   6.301   1.151   7.588
  202NSC     F112524   6.738   1.363   7.764
  202NSC     F112525   6.742   1.580   7.750
  202NSC     F112526   6.581   1.482   7.859
  202NSC    CBT12527   6.251   1.389   7.481
  202NSC     F112528   6.142   1.331   7.433
  202NSC     F112529   6.220   1.456   7.592
  202NSC     F112530   6.301   1.471   7.388
  203NSC    NBT12531   7.061   1.615   2.065
  203NSC    SBT12532   7.095   1.732   1.959
  203NSC    SBT12533   7.118   1.601   2.216
  203NSC    OBT12534   7.264   1.578   2.222
  203NSC    CBT12535   7.044   1.438   2.264
  203NSC    OBT12536   7.062   1.698   2.311
  203NSC    OBT12537   7.238   1.743   1.927
  203NSC    OBT12538   7.004   1.724   1.842
  203NSC     F112539   7.086   1.343   2.180
  203NSC     F112540   7.083   1.407   2.388
  203NSC     F112541   6.911   1.447   2.261
  203NSC    CBT12542   7.047   1.889   2.046
  203NSC     F112543   7.030   1.984   1.956
  203NSC     F112544   6.933   1.870   2.112
  203NSC     F112545   7.145   1.923   2.129
  204NSC    NBT12546   0.473   0.175   1.870
  204NSC    SBT12547   0.373   0.260   1.965
  204NSC    SBT12548   0.573   0.234   1.757
  204NSC    OBT12549   0.503   0.297   1.643
  204NSC    CBT12550   0.640   0.075   1.687
  204NSC    OBT12551   0.690   0.304   1.811
  204NSC    OBT12552   0.275   0.340   1.891
  204NSC    OBT12553   0.318   0.174   2.072
  204NSC     F112554   0.539   0.002   1.638
  204NSC     F112555   0.724   0.104   1.587
  204NSC     F112556   0.704   0.008   1.782
  204NSC    CBT12557   0.485   0.380   2.053
  204NSC     F112558   0.422   0.424   2.161
  204NSC     F112559   0.597   0.319   2.088
  204NSC     F112560   0.509   0.483   1.972
  205NSC    NBT12561   0.153   6.714   3.062
  205NSC    SBT12562   0.140   6.556   3.030
  205NSC    SBT12563   0.290   6.799   3.078
  205NSC    OBT12564   0.372   6.759   3.194
  205NSC    CBT12565   0.220   6.964   3.126
  205NSC    OBT12566   0.360   6.823   2.951
  205NSC    OBT12567   0.206   6.469   3.129
  205NSC    OBT12568  -0.000   6.520   2.999
  205NSC     F112569   0.150   6.951   3.239
  205NSC     F112570   0.321   7.049   3.147
  205NSC     F112571   0.142   7.010   3.029
  205NSC    CBT12572   0.232   6.534   2.870
  205NSC     F112573   0.193   6.420   2.814
  205NSC     F112574   0.205   6.635   2.789
  205NSC     F112575   0.363   6.527   2.896
  206NSC    NBT12576   5.099   7.207   6.431
  206NSC    SBT12577   5.258   7.177   6.416
  206NSC    SBT12578   4.978   7.131   6.353
  206NSC    OBT12579   4.979   7.153   6.208
  206NSC    CBT12580   4.834   7.230   6.415
  206NSC    OBT12581   4.953   6.994   6.400
  206NSC    OBT12582   5.309   7.193   6.279
  206NSC    OBT12583   5.334   7.248   6.521
  206NSC     F112584   4.850   7.359   6.380
  206NSC     F112585   4.723   7.184   6.358
  206NSC     F112586   4.825   7.219   6.547
  206NSC    CBT12587   5.275   6.997   6.458
  206NSC     F112588   5.401   6.972   6.490
  206NSC     F112589   5.196   6.967   6.561
  206NSC     F112590   5.242   6.924   6.351
  207NSC    NBT12591   1.857   7.726   4.704
  207NSC    SBT12592   1.730   7.695   4.799
  207NSC    SBT12593   1.852   7.778   4.550
  207NSC    OBT12594   1.794   7.680   4.457
  207NSC    CBT12595   2.034   7.777   4.510
  207NSC    OBT12596   1.811   7.918   4.535
  207NSC    OBT12597   1.640   7.591   4.746
  207NSC    OBT12598   1.774   7.675   4.939
  207NSC     F112599   2.082   7.653   4.525
  207NSC     F112600   2.051   7.814   4.383
  207NSC     F112601   2.098   7.861   4.591
  207NSC    CBT12602   1.634   7.854   4.801
  207NSC     F112603   1.554   7.853   4.907
  207NSC     F112604   1.717   7.957   4.810
  207NSC     F112605   1.560   7.861   4.691
  208NSC    NBT12606   6.579   1.814   1.030
  208NSC    SBT12607   6.734   1.773   1.045
  208NSC    SBT12608   6.510   1.952   1.082
  208NSC    OBT12609   6.511   1.967   1.229
  208NSC    CBT12610   6.332   1.917   1.041
  208NSC    OBT12611   6.545   2.070   1.002
  208NSC    OBT12612   6.782   1.768   1.184
  208NSC    OBT12613   6.763   1.652   0.964
  208NSC     F112614   6.292   1.807   1.106
  208NSC     F112615   6.258   2.020   1.080
  208NSC     F112616   6.320   1.900   0.910
  208NSC    CBT12617   6.827   1.910   0.961
  208NSC     F112618   6.948   1.867   0.930
  208NSC     F112619   6.763   1.947   0.851
  208NSC     F112620   6.838   2.013   1.046
  209NSC    NBT12621   6.540   6.481   2.769
  209NSC    SBT12622   6.623   6.343   2.756
  209NSC    SBT12623   6.589   6.628   2.720
  209NSC    OBT12624   6.706   6.679   2.793
  209NSC    CBT12625   6.447   6.732   2.782
  209NSC    OBT12626   6.587   6.646   2.574
  209NSC    OBT12627   6.754   6.345   2.823
  209NSC    OBT12628   6.536   6.228   2.789
  209NSC     F112629   6.438   6.718   2.915
  209NSC     F112630   6.471   6.859   2.753
  209NSC     F112631   6.335   6.693   2.724
  209NSC    CBT12632   6.657   6.327   2.574
  209NSC     F112633   6.685   6.200   2.547
  209NSC     F112634   6.549   6.364   2.505
  209NSC     F112635   6.762   6.403   2.543
  210NSC    NBT12636   3.519   0.482   3.588
  210NSC    SBT12637   3.390   0.388   3.563
  210NSC    SBT12638   3.620   0.477   3.715
  210NSC    OBT12639   3.557   0.514   3.842
  210NSC    CBT12640   3.730   0.621   3.674
  210NSC    OBT12641   3.709   0.360   3.716
  210NSC    OBT12642   3.288   0.397   3.670
  210NSC    OBT12643   3.338   0.405   3.426
  210NSC     F112644   3.656   0.732   3.666
  210NSC     F112645   3.820   0.635   3.771
  210NSC     F112646   3.792   0.599   3.558
  210NSC    CBT12647   3.457   0.215   3.568
  210NSC     F112648   3.370   0.134   3.509
  210NSC     F112649   3.573   0.210   3.505
  210NSC     F112650   3.470   0.177   3.696
  211NSC    NBT12651   5.474   0.428   2.882
  211NSC    SBT12652   5.406   0.561   2.943
  211NSC    SBT12653   5.404   0.322   2.780
  211NSC    OBT12654   5.290   0.249   2.839
  211NSC    CBT12655   5.539   0.195   2.769
  211NSC    OBT12656   5.388   0.372   2.643
  211NSC    OBT12657   5.283   0.536   3.021
  211NSC    OBT12658   5.508   0.644   3.011
  211NSC     F112659   5.564   0.146   2.891
  211NSC     F112660   5.498   0.095   2.690
  211NSC     F112661   5.649   0.250   2.718
  211NSC    CBT12662   5.355   0.660   2.794
  211NSC     F112663   5.339   0.786   2.830
  211NSC     F112664   5.450   0.652   2.701
  211NSC     F112665   5.239   0.612   2.748
  212NSC    NBT12666   2.132   6.882   2.316
  212NSC    SBT12667   2.070   6.732   2.313
  212NSC    SBT12668   2.134   6.988   2.192
  212NSC    OBT12669   2.216   6.945   2.078
  212NSC    CBT12670   2.230   7.126   2.270
  212NSC    OBT12671   2.002   7.046   2.161
  212NSC    OBT12672   2.131   6.644   2.212
  212NSC    OBT12673   2.065   6.676   2.450
  212NSC     F112674   2.351   7.081   2.306
  212NSC     F112675   2.245   7.224   2.181
  212NSC     F112676   2.165   7.172   2.376
  212NSC    CBT12677   1.893   6.756   2.264
  212NSC     F112678   1.824   6.648   2.300
  212NSC     F112679   1.843   6.863   2.325
  212NSC     F112680   1.886   6.769   2.131
  213NSC    NBT12681   2.049   6.228   0.999
  213NSC    SBT12682   1.992   6.319   0.879
  213NSC    SBT12683   1.961   6.139   1.104
  213NSC    OBT12684   1.875   6.220   1.192
  213NSC    CBT12685   2.096   6.077   1.215
  213NSC    OBT12686   1.902   6.018   1.045
  213NSC    OBT12687   1.899   6.425   0.923
  213NSC    OBT12688   2.102   6.364   0.791
  213NSC     F112689   2.160   6.181   1.270
  213NSC     F112690   2.043   6.003   1.311
  213NSC     F112691   2.182   6.004   1.144
  213NSC    CBT12692   1.892   6.202   0.775
  213NSC     F112693   1.877   6.255   0.654
  213NSC     F112694   1.956   6.086   0.765
  213NSC     F112695   1.772   6.186   0.831
  214NSC    NBT12696   4.661   0.727   6.094
  214NSC    SBT12697   4.521   0.771   6.161
  214NSC    SBT12698   4.719   0.576   6.080
  214NSC    OBT12699   4.751   0.513   6.210
  214NSC    CBT12700   4.885   0.612   6.005
  214NSC    OBT12701   4.649   0.493   5.981
  214NSC    OBT12702   4.508   0.732   6.303
  214NSC    OBT12703   4.492   0.913   6.132
  214NSC     F112704   4.955   0.691   6.087
  214NSC     F112705   4.951   0.497   5.989
  214NSC     F112706   4.869   0.671   5.887
  214NSC    CBT12707   4.392   0.675   6.068
  214NSC     F112708   4.275   0.734   6.086
  214NSC     F112709   4.422   0.674   5.939
  214NSC     F112710   4.387   0.551   6.117
  215NSC    NBT12711   7.075   2.163   5.701
  215NSC    SBT12712   7.118   2.148   5.856
  215NSC    SBT12713   7.144   2.258   5.590
  215NSC    OBT12714   7.130   2.402   5.617
  215NSC    CBT12715   7.032   2.227   5.446
  215NSC    OBT12716   7.277   2.212   5.545
  215NSC    OBT12717   7.113   2.275   5.932
  215NSC    OBT12718   7.049   2.034   5.919
  215NSC     F112719   6.907   2.262   5.479
  215NSC     F112720   7.071   2.301   5.342
  215NSC     F112721   7.036   2.098   5.413
  215NSC    CBT12722   7.297   2.098   5.850
  215NSC     F112723   7.330   2.044   5.967
  215NSC     F112724   7.316   2.010   5.753
  215NSC     F112725   7.372   2.207   5.831
  216NSC    NBT12726   2.066   3.258   0.603
  216NSC    SBT12727   1.952   3.285   0.492
  216NSC    SBT12728   2.074   3.323   0.752
  216NSC    OBT12729   2.095   3.469   0.753
  216NSC    CBT12730   2.237   3.253   0.809
  216NSC    OBT12731   1.975   3.269   0.847
  216NSC    OBT12732   1.939   3.427   0.454
  216NSC    OBT12733   1.964   3.190   0.380
  216NSC     F112734   2.334   3.293   0.726
  216NSC     F112735   2.263   3.298   0.931
  216NSC     F112736   2.230   3.120   0.811
  216NSC    CBT12737   1.793   3.238   0.577
  216NSC     F112738   1.701   3.216   0.484
  216NSC     F112739   1.811   3.128   0.649
  216NSC     F112740   1.754   3.340   0.655
  217NSC    NBT12741   4.294   1.231   7.314
  217NSC    SBT12742   4.188   1.208   7.195
  217NSC    SBT12743   4.421   1.136   7.350
  217NSC    OBT12744   4.384   1.001   7.396
  217NSC    CBT12745   4.483   1.221   7.504
  217NSC    OBT12746   4.533   1.146   7.255
  217NSC    OBT12747   4.116   1.080   7.202
  217NSC    OBT12748   4.103   1.328   7.178
  217NSC     F112749   4.385   1.221   7.597
  217NSC     F112750   4.588   1.155   7.552
  217NSC     F112751   4.518   1.346   7.475
  217NSC    CBT12752   4.292   1.202   7.041
  217NSC     F112753   4.215   1.227   6.936
  217NSC     F112754   4.388   1.294   7.048
  217NSC     F112755   4.345   1.080   7.029
  218NSC    NBT12756   2.288   6.152   5.378
  218NSC    SBT12757   2.180   6.259   5.433
  218NSC    SBT12758   2.282   5.991   5.393
  218NSC    OBT12759   2.292   5.944   5.533
  218NSC    CBT12760   2.445   5.945   5.317
  218NSC    OBT12761   2.181   5.926   5.308
  218NSC    OBT12762   2.159   6.253   5.578
  218NSC    OBT12763   2.207   6.394   5.377
  218NSC     F112764   2.544   6.003   5.386
  218NSC     F112765   2.461   5.813   5.324
  218NSC     F112766   2.448   5.984   5.190
  218NSC    CBT12767   2.019   6.206   5.354
  218NSC     F112768   1.935   6.308   5.358
  218NSC     F112769   2.041   6.170   5.228
  218NSC     F112770   1.968   6.105   5.425
  219NSC    NBT12771   6.219   3.203   4.067
  219NSC    SBT12772   6.172   3.125   3.934
  219NSC    SBT12773   6.332   3.155   4.173
  219NSC    OBT12774   6.297   3.032   4.246
  219NSC    CBT12775   6.317   3.289   4.300
  219NSC    OBT12776   6.470   3.165   4.123
  219NSC    OBT12777   6.120   2.989   3.959
  219NSC    OBT12778   6.086   3.211   3.850
  219NSC     F112779   6.192   3.290   4.349
  219NSC     F112780   6.403   3.265   4.399
  219NSC     F112781   6.346   3.407   4.244
  219NSC    CBT12782   6.328   3.103   3.835
  219NSC     F112783   6.295   3.080   3.709
  219NSC     F112784   6.401   3.214   3.842
  219NSC     F112785   6.395   2.998   3.883
  220NSC    NBT12786   6.898   6.814   7.473
  220NSC    SBT12787   6.997   6.693   7.514
  220NSC    SBT12788   6.736   6.811   7.477
  220NSC    OBT12789   6.675   6.716   7.382
  220NSC    CBT12790   6.698   6.978   7.405
  220NSC    OBT12791   6.679   6.815   7.613
  220NSC    OBT12792   6.977   6.570   7.435
  220NSC    OBT12793   7.137   6.742   7.521
  220NSC     F112794   6.750   6.986   7.281
  220NSC     F112795   6.566   6.994   7.397
  220NSC     F112796   6.750   7.073   7.482
  220NSC    CBT12797   6.952   6.653   7.689
  220NSC     F112798   7.052   6.587   7.745
  220NSC     F112799   6.929   6.765   7.756
  220NSC     F112800   6.844   6.575   7.689
  221NSC    NBT12801   2.859   0.426   3.391
  221NSC    SBT12802   2.978   0.435   3.281
  221NSC    SBT12803   2.709   0.371   3.366
  221NSC    OBT12804   2.630   0.453   3.272
  221NSC    CBT12805   2.634   0.406   3.533
  221NSC    OBT12806   2.700   0.225   3.351
  221NSC    OBT12807   2.945   0.517   3.164
  221NSC    OBT12808   3.107   0.467   3.347
  221NSC     F112809   2.641   0.538   3.558
  221NSC     F112810   2.506   0.370   3.531
  221NSC     F112811   2.699   0.338   3.626
  221NSC    CBT12812   2.997   0.260   3.220
  221NSC     F112813   3.116   0.248   3.164
  221NSC     F112814   2.987   0.176   3.322
  221NSC     F112815   2.903   0.236   3.129
  222NSC    NBT12816   5.173   2.435   3.743
  222NSC    SBT12817   5.196   2.591   3.708
  222NSC    SBT12818   5.035   2.352   3.727
  222NSC    OBT12819   4.926   2.398   3.816
  222NSC    CBT12820   5.087   2.189   3.799
  222NSC    OBT12821   4.999   2.321   3.588
  222NSC    OBT12822   5.107   2.683   3.782
  222NSC    OBT12823   5.340   2.625   3.712
  222NSC     F112824   5.126   2.207   3.926
  222NSC     F112825   4.983   2.105   3.798
  222NSC     F112826   5.187   2.138   3.728
  222NSC    CBT12827   5.148   2.606   3.529
  222NSC     F112828   5.203   2.716   3.480
  222NSC     F112829   5.194   2.500   3.462
  222NSC     F112830   5.016   2.614   3.520
  223NSC    NBT12831   4.593   4.569   6.813
  223NSC    SBT12832   4.754   4.583   6.812
  223NSC    SBT12833   4.506   4.439   6.768
  223NSC    OBT12834   4.519   4.406   6.625
  223NSC    CBT12835   4.334   4.506   6.785
  223NSC    OBT12836   4.513   4.327   6.863
  223NSC    OBT12837   4.815   4.562   6.680
  223NSC    OBT12838   4.795   4.705   6.883
  223NSC     F112839   4.320   4.613   6.705
  223NSC     F112840   4.247   4.413   6.749
  223NSC     F112841   4.312   4.541   6.912
  223NSC    CBT12842   4.813   4.443   6.920
  223NSC     F112843   4.936   4.470   6.960
  223NSC     F112844   4.733   4.431   7.026
  223NSC     F112845   4.814   4.330   6.848
  224NSC    NBT12846   2.586   5.409   1.889
  224NSC    SBT12847   2.431   5.367   1.912
  224NSC    SBT12848   2.689   5.344   1.782
  224NSC    OBT12849   2.721   5.203   1.809
  224NSC    CBT12850   2.844   5.436   1.827
  224NSC    OBT12851   2.662   5.381   1.643
  224NSC    OBT12852   2.413   5.226   1.950
  224NSC    OBT12853   2.363   5.465   2.000
  224NSC     F112854   2.875   5.412   1.956
  224NSC     F112855   2.944   5.393   1.750
  224NSC     F112856   2.826   5.566   1.809
  224NSC    CBT12857   2.352   5.389   1.746
  224NSC     F112858   2.221   5.399   1.762
  224NSC     F112859   2.398   5.500   1.689
  224NSC     F112860   2.379   5.282   1.671
  225NSC    NBT12861   1.580   2.197   3.788
  225NSC    SBT12862   1.568   2.322   3.890
  225NSC    SBT12863   1.713   2.108   3.757
  225NSC    OBT12864   1.821   2.184   3.692
  225NSC    CBT12865   1.648   1.997   3.623
  225NSC    OBT12866   1.751   2.018   3.867
  225NSC    OBT12867   1.660   2.433   3.859
  225NSC    OBT12868   1.427   2.360   3.909
  225NSC     F112869   1.606   2.072   3.520
  225NSC     F112870   1.746   1.917   3.582
  225NSC     F112871   1.547   1.924   3.671
  225NSC    CBT12872   1.622   2.253   4.053
  225NSC     F112873   1.577   2.332   4.149
  225NSC     F112874   1.572   2.131   4.069
  225NSC     F112875   1.755   2.251   4.058
  226NSC    NBT12876   4.873   5.193   7.431
  226NSC    SBT12877   4.791   5.138   7.559
  226NSC    SBT12878   5.005   5.126   7.365
  226NSC    OBT12879   5.123   5.127   7.454
  226NSC    CBT12880   5.044   5.253   7.235
  226NSC    OBT12881   4.979   5.002   7.290
  226NSC    OBT12882   4.872   5.128   7.682
  226NSC    OBT12883   4.663   5.211   7.574
  226NSC     F112884   5.066   5.372   7.294
  226NSC     F112885   5.155   5.216   7.170
  226NSC     F112886   4.943   5.262   7.149
  226NSC    CBT12887   4.742   4.965   7.512
  226NSC     F112888   4.641   4.928   7.589
  226NSC     F112889   4.705   4.962   7.385
  226NSC     F112890   4.846   4.884   7.533
  227NSC    NBT12891   3.593   2.923   0.574
  227NSC    SBT12892   3.681   2.800   0.518
  227NSC    SBT12893   3.433   2.925   0.598
  227NSC    OBT12894   3.354   2.913   0.474
  227NSC    CBT12895   3.409   3.102   0.650
  227NSC    OBT12896   3.388   2.846   0.713
  227NSC    OBT12897   3.640   2.754   0.384
  227NSC    OBT12898   3.825   2.827   0.534
  227NSC     F112899   3.452   3.183   0.552
  227NSC     F112900   3.280   3.125   0.671
  227NSC     F112901   3.478   3.125   0.762
  227NSC    CBT12902   3.645   2.660   0.635
  227NSC     F112903   3.741   2.570   0.624
  227NSC     F112904   3.641   2.706   0.760
  227NSC     F112905   3.529   2.604   0.601
  228NSC    NBT12906   4.162   4.867   0.515
  228NSC    SBT12907   4.269   4.949   0.604
  228NSC    SBT12908   4.174   4.829   0.358
  228NSC    OBT12909   4.173   4.947   0.269
  228NSC    CBT12910   4.010   4.748   0.330
  228NSC    OBT12911   4.274   4.725   0.329
  228NSC    OBT12912   4.296   5.085   0.553
  228NSC    OBT12913   4.234   4.941   0.748
  228NSC     F112914   3.912   4.835   0.358
  228NSC     F112915   4.000   4.713   0.202
  228NSC     F112916   3.999   4.641   0.408
  228NSC    CBT12917   4.427   4.853   0.587
  228NSC     F112918   4.507   4.886   0.687
  228NSC     F112919   4.400   4.723   0.593
  228NSC     F112920   4.485   4.885   0.472
  229NSC    NBT12921   3.392   0.745   0.660
  229NSC    SBT12922   3.266   0.836   0.704
  229NSC    SBT12923   3.518   0.792   0.570
  229NSC    OBT12924   3.483   0.828   0.432
  229NSC    CBT12925   3.609   0.630   0.555
  229NSC    OBT12926   3.612   0.881   0.641
  229NSC    OBT12927   3.190   0.892   0.591
  229NSC    OBT12928   3.184   0.765   0.806
  229NSC     F112929   3.529   0.540   0.495
  229NSC     F112930   3.717   0.648   0.479
  229NSC     F112931   3.645   0.587   0.675
  229NSC    CBT12932   3.341   0.979   0.795
  229NSC     F112933   3.248   1.035   0.870
  229NSC     F112934   3.441   0.936   0.872
  229NSC     F112935   3.385   1.068   0.706
  230NSC    NBT12936   3.349   6.959   3.480
  230NSC    SBT12937   3.251   7.083   3.517
  230NSC    SBT12938   3.498   6.969   3.419
  230NSC    OBT12939   3.504   7.027   3.283
  230NSC    CBT12940   3.535   6.789   3.394
  230NSC    OBT12941   3.600   7.015   3.515
  230NSC    OBT12942   3.221   7.171   3.403
  230NSC    OBT12943   3.134   7.035   3.593
  230NSC     F112944   3.445   6.736   3.310
  230NSC     F112945   3.656   6.776   3.340
  230NSC     F112946   3.532   6.726   3.511
  230NSC    CBT12947   3.349   7.184   3.638
  230NSC     F112948   3.265   7.262   3.706
  230NSC     F112949   3.413   7.104   3.722
  230NSC     F112950   3.435   7.261   3.571
  231NSC    NBT12951   1.538   4.073   5.854
  231NSC    SBT12952   1.495   4.063   6.010
  231NSC    SBT12953   1.620   4.194   5.784
  231NSC    OBT12954   1.548   4.323   5.784
  231NSC    CBT12955   1.616   4.138   5.607
  231NSC    OBT12956   1.763   4.198   5.819
  231NSC    OBT12957   1.411   4.174   6.057
  231NSC    OBT12958   1.444   3.927   6.040
  231NSC     F112959   1.488   4.128   5.567
  231NSC     F112960   1.677   4.229   5.532
  231NSC     F112961   1.677   4.021   5.596
  231NSC    CBT12962   1.656   4.075   6.102
  231NSC     F112963   1.639   4.025   6.224
  231NSC     F112964   1.749   4.004   6.039
  231NSC     F112965   1.691   4.203   6.112
  232NSC    NBT12966   2.573   1.961   2.703
  232NSC    SBT12967   2.709   2.046   2.681
  232NSC    SBT12968   2.431   2.017   2.758
  232NSC    OBT12969   2.436   2.064   2.898
  232NSC    CBT12970   2.334   1.859   2.766
  232NSC    OBT12971   2.358   2.102   2.662
  232NSC    OBT12972   2.759   2.111   2.804
  232NSC    OBT12973   2.809   1.967   2.606
  232NSC     F112974   2.396   1.773   2.848
  232NSC     F112975   2.213   1.885   2.813
  232NSC     F112976   2.325   1.807   2.644
  232NSC    CBT12977   2.660   2.183   2.565
  232NSC     F112978   2.769   2.232   2.508
  232NSC     F112979   2.578   2.135   2.471
  232NSC     F112980   2.600   2.280   2.635
  233NSC    NBT12981   5.011   2.577   4.610
  233NSC    SBT12982   4.863   2.618   4.662
  233NSC    SBT12983   5.152   2.604   4.686
  233NSC    OBT12984   5.185   2.747   4.699
  233NSC    CBT12985   5.271   2.540   4.559
  233NSC    OBT12986   5.173   2.519   4.804
  233NSC    OBT12987   4.847   2.763   4.685
  233NSC    OBT12988   4.759   2.555   4.578
  233NSC     F112989   5.255   2.609   4.445
  233NSC     F112990   5.395   2.557   4.603
  233NSC     F112991   5.248   2.411   4.538
  233NSC    CBT12992   4.848   2.536   4.828
  233NSC     F112993   4.720   2.528   4.859
  233NSC     F112994   4.901   2.414   4.823
  233NSC     F112995   4.910   2.611   4.919
  234NSC    NBT12996   5.939   6.110   1.044
  234NSC    SBT12997   5.822   6.221   1.037
  234NSC    SBT12998   5.925   5.957   1.097
  234NSC    OBT12999   5.893   5.947   1.241
  234NSC    CBT13000   6.102   5.903   1.085
  234NSC    OBT13001   5.852   5.868   1.006
  234NSC    OBT13002   5.759   6.250   1.167
  234NSC    OBT13003   5.866   6.339   0.961
  234NSC     F113004   6.178   5.981   1.163
  234NSC     F113005   6.112   5.777   1.129
  234NSC     F113006   6.143   5.910   0.959
  234NSC    CBT13007   5.690   6.142   0.932
  234NSC     F113008   5.611   6.238   0.885
  234NSC     F113009   5.747   6.078   0.830
  234NSC     F113010   5.619   6.059   1.007
  235NSC    NBT13011   3.480   1.146   3.375
  235NSC    SBT13012   3.522   1.021   3.469
  235NSC    SBT13013   3.380   1.142   3.247
  235NSC    OBT13014   3.430   1.061   3.135
  235NSC    CBT13015   3.395   1.318   3.189
  235NSC    OBT13016   3.238   1.126   3.283
  235NSC    OBT13017   3.586   0.911   3.396
  235NSC    OBT13018   3.594   1.069   3.589
  235NSC     F113019   3.523   1.343   3.158
  235NSC     F113020   3.320   1.333   3.079
  235NSC     F113021   3.353   1.400   3.284
  235NSC    CBT13022   3.360   0.956   3.533
  235NSC     F113023   3.384   0.883   3.642
  235NSC     F113024   3.280   1.057   3.564
  235NSC     F113025   3.305   0.878   3.440
  236NSC    NBT13026   3.221   7.472   6.678
  236NSC    SBT13027   3.374   7.519   6.661
  236NSC    SBT13028   3.100   7.556   6.746
  236NSC    OBT13029   3.119   7.582   6.890
  236NSC    CBT13030   2.964   7.431   6.739
  236NSC    OBT13031   3.052   7.669   6.665
  236NSC    OBT13032   3.442   7.552   6.788
  236NSC    OBT13033   3.448   7.426   6.572
  236NSC     F113034   3.000   7.321   6.808
  236NSC     F113035   2.854   7.482   6.794
  236NSC     F113036   2.939   7.399   6.612
  236NSC    CBT13037   3.363   7.678   6.565
  236NSC     F113038   3.481   7.702   6.510
  236NSC     F113039   3.271   7.666   6.470
  236NSC     F113040   3.333   7.777   6.649
  237NSC    NBT13041   6.585   4.608   2.019
  237NSC    SBT13042   6.550   4.751   1.953
  237NSC    SBT13043   6.719   4.569   2.102
  237NSC    OBT13044   6.842   4.572   2.021
  237NSC    CBT13045   6.688   4.388   2.132
  237NSC    OBT13046   6.726   4.628   2.236
  237NSC    OBT13047   6.649   4.796   1.854
  237NSC    OBT13048   6.409   4.755   1.909
  237NSC     F113049   6.675   4.325   2.014
  237NSC     F113050   6.792   4.337   2.198
  237NSC     F113051   6.577   4.373   2.204
  237NSC    CBT13052   6.559   4.871   2.095
  237NSC     F113053   6.492   4.981   2.062
  237NSC     F113054   6.504   4.816   2.203
  237NSC     F113055   6.687   4.902   2.117
  238NSC    NBT13056   0.674   0.700   2.143
  238NSC    SBT13057   0.548   0.776   2.211
  238NSC    SBT13058   0.826   0.756   2.130
  238NSC    OBT13059   0.838   0.874   2.042
  238NSC    CBT13060   0.903   0.618   2.033
  238NSC    OBT13061   0.900   0.759   2.257
  238NSC    OBT13062   0.516   0.906   2.147
  238NSC    OBT13063   0.434   0.684   2.226
  238NSC     F113064   0.838   0.605   1.916
  238NSC     F113065   1.030   0.648   2.009
  238NSC     F113066   0.896   0.505   2.102
  238NSC    CBT13067   0.604   0.814   2.384
  238NSC     F113068   0.497   0.837   2.458
  238NSC     F113069   0.671   0.710   2.433
  238NSC     F113070   0.680   0.923   2.382
  239NSC    NBT13071   1.514   4.624   1.056
  239NSC    SBT13072   1.515   4.471   1.110
  239NSC    SBT13073   1.639   4.705   0.993
  239NSC    OBT13074   1.750   4.729   1.087
  239NSC    CBT13075   1.562   4.873   0.970
  239NSC    OBT13076   1.676   4.662   0.857
  239NSC    OBT13077   1.613   4.446   1.217
  239NSC    OBT13078   1.377   4.425   1.137
  239NSC     F113079   1.521   4.919   1.089
  239NSC     F113080   1.652   4.956   0.920
  239NSC     F113081   1.459   4.863   0.887
  239NSC    CBT13082   1.571   4.372   0.963
  239NSC     F113083   1.535   4.246   0.982
  239NSC     F113084   1.514   4.418   0.853
  239NSC     F113085   1.704   4.378   0.955
  240NSC    NBT13086   3.669   3.906   6.794
  240NSC    SBT13087   3.826   3.896   6.755
  240NSC    SBT13088   3.555   3.991   6.715
  240NSC    OBT13089   3.576   4.137   6.719
  240NSC    CBT13090   3.410   3.962   6.827
  240NSC    OBT13091   3.515   3.933   6.586
  240NSC    OBT13092   3.895   4.026   6.752
  240NSC    OBT13093   3.892   3.790   6.834
  240NSC     F113094   3.438   4.008   6.950
  240NSC     F113095   3.304   4.028   6.780
  240NSC     F113096   3.382   3.832   6.832
  240NSC    CBT13097   3.826   3.832   6.580
  240NSC     F113098   3.945   3.780   6.554
  240NSC     F113099   3.733   3.738   6.567
  240NSC     F113100   3.803   3.934   6.497
  241NSC    NBT13101   4.208   2.494   0.349
  241NSC    SBT13102   4.102   2.372   0.349
  241NSC    SBT13103   4.359   2.492   0.409
  241NSC    OBT13104   4.364   2.474   0.555
  241NSC    CBT13105   4.407   2.669   0.382
  241NSC    OBT13106   4.454   2.414   0.329
  241NSC    OBT13107   4.069   2.322   0.484
  241NSC    OBT13108   3.986   2.404   0.264
  241NSC     F113109   4.323   2.749   0.449
  241NSC     F113110   4.530   2.688   0.429
  241NSC     F113111   4.404   2.697   0.252
  241NSC    CBT13112   4.190   2.234   0.261
  241NSC     F113113   4.100   2.147   0.219
  241NSC     F113114   4.256   2.284   0.157
  241NSC     F113115   4.272   2.174   0.346
  242NSC    NBT13116   0.869   5.622   0.933
  242NSC    SBT13117   0.984   5.513   0.901
  242NSC    SBT13118   0.887   5.763   1.010
  242NSC    OBT13119   0.928   5.749   1.151
  242NSC    CBT13120   0.711   5.820   1.018
  242NSC    OBT13121   0.956   5.866   0.931
  242NSC    OBT13122   1.053   5.462   1.020
  242NSC    OBT13123   0.933   5.409   0.808
  242NSC     F113124   0.638   5.729   1.086
  242NSC     F113125   0.705   5.936   1.083
  242NSC     F113126   0.663   5.834   0.895
  242NSC    CBT13127   1.110   5.608   0.802
  242NSC     F113128   1.185   5.521   0.736
  242NSC     F113129   1.048   5.688   0.717
  242NSC     F113130   1.187   5.677   0.887
  243NSC    NBT13131   6.148   5.301   3.655
  243NSC    SBT13132   6.294   5.370   3.664
  243NSC    SBT13133   6.095   5.202   3.538
  243NSC    OBT13134   6.083   5.267   3.406
  243NSC    CBT13135   5.919   5.178   3.593
  243NSC    OBT13136   6.154   5.067   3.541
  243NSC    OBT13137   6.327   5.456   3.549
  243NSC    OBT13138   6.313   5.433   3.797
  243NSC     F113139   5.857   5.296   3.597
  243NSC     F113140   5.857   5.100   3.505
  243NSC     F113141   5.917   5.120   3.713
  243NSC    CBT13142   6.413   5.228   3.660
  243NSC     F113143   6.529   5.269   3.709
  243NSC     F113144   6.366   5.128   3.734
  243NSC     F113145   6.430   5.190   3.533
  244NSC    NBT13146   3.300   4.625   5.383
  244NSC    SBT13147   3.167   4.533   5.380
  244NSC    SBT13148   3.445   4.585   5.444
  244NSC    OBT13149   3.444   4.565   5.590
  244NSC    CBT13150   3.535   4.746   5.421
  244NSC    OBT13151   3.520   4.488   5.364
  244NSC    OBT13152   3.122   4.489   5.513
  244NSC    OBT13153   3.064   4.593   5.293
  244NSC     F113154   3.471   4.843   5.488
  244NSC     F113155   3.659   4.734   5.470
  244NSC     F113156   3.541   4.776   5.291
  244NSC    CBT13157   3.221   4.379   5.289
  244NSC     F113158   3.113   4.317   5.245
  244NSC     F113159   3.299   4.412   5.187
  244NSC     F113160   3.285   4.299   5.375
  245NSC    NBT13161   6.187   6.112   2.228
  245NSC    SBT13162   6.282   6.230   2.285
  245NSC    SBT13163   6.210   5.952   2.245
  245NSC    OBT13164   6.330   5.902   2.175
  245NSC    CBT13165   6.069   5.888   2.143
  245NSC    OBT13166   6.185   5.901   2.381
  245NSC    OBT13167   6.420   6.224   2.235
  245NSC    OBT13168   6.215   6.361   2.272
  245NSC     F113169   6.080   5.933   2.017
  245NSC     F113170   6.073   5.755   2.142
  245NSC     F113171   5.954   5.929   2.196
  245NSC    CBT13172   6.290   6.198   2.468
  245NSC     F113173   6.329   6.310   2.528
  245NSC     F113174   6.170   6.162   2.513
  245NSC     F113175   6.381   6.103   2.491
  246NSC    NBT13176   1.917   3.408   5.363
  246NSC    SBT13177   1.991   3.547   5.398
  246NSC    SBT13178   1.952   3.308   5.239
  246NSC    OBT13179   1.925   3.367   5.107
  246NSC    CBT13180   1.817   3.182   5.261
  246NSC    OBT13181   2.077   3.233   5.256
  246NSC    OBT13182   1.985   3.647   5.290
  246NSC    OBT13183   1.949   3.596   5.531
  246NSC     F113184   1.698   3.242   5.252
  246NSC     F113185   1.827   3.091   5.164
  246NSC     F113186   1.830   3.123   5.379
  246NSC    CBT13187   2.170   3.501   5.418
  246NSC     F113188   2.230   3.596   5.487
  246NSC     F113189   2.179   3.386   5.484
  246NSC     F113190   2.226   3.492   5.298
  247NSC    NBT13191   6.620   3.144   5.399
  247NSC    SBT13192   6.464   3.129   5.442
  247NSC    SBT13193   6.749   3.094   5.484
  247NSC    OBT13194   6.767   3.165   5.612
  247NSC    CBT13195   6.886   3.158   5.376
  247NSC    OBT13196   6.767   2.948   5.485
  247NSC    OBT13197   6.431   3.194   5.570
  247NSC    OBT13198   6.376   3.164   5.328
  247NSC     F113199   6.875   3.292   5.366
  247NSC     F113200   7.003   3.129   5.433
  247NSC     F113201   6.878   3.102   5.256
  247NSC    CBT13202   6.441   2.947   5.467
  247NSC     F113203   6.311   2.920   5.460
  247NSC     F113204   6.505   2.880   5.373
  247NSC     F113205   6.486   2.914   5.588
  248NSC    NBT13206   1.248   2.443   5.565
  248NSC    SBT13207   1.098   2.504   5.552
  248NSC    SBT13208   1.308   2.361   5.691
  248NSC    OBT13209   1.319   2.440   5.815
  248NSC    CBT13210   1.484   2.340   5.634
  248NSC    OBT13211   1.257   2.224   5.703
  248NSC    OBT13212   1.063   2.599   5.658
  248NSC    OBT13213   1.073   2.550   5.414
  248NSC     F113214   1.539   2.461   5.616
  248NSC     F113215   1.553   2.275   5.728
  248NSC     F113216   1.487   2.270   5.521
  248NSC    CBT13217   0.987   2.356   5.574
  248NSC     F113218   0.868   2.385   5.524
  248NSC     F113219   1.038   2.252   5.510
  248NSC     F113220   0.975   2.331   5.704
  249NSC    NBT13221   7.106   4.827   1.580
  249NSC    SBT13222   7.184   4.703   1.647
  249NSC    SBT13223   6.980   4.819   1.477
  249NSC    OBT13224   7.014   4.758   1.348
  249NSC    CBT13225   6.958   5.000   1.438
  249NSC    OBT13226   6.853   4.779   1.540
  249NSC    OBT13227   7.244   4.610   1.550
  249NSC    OBT13228   7.275   4.750   1.754
  249NSC     F113229   7.072   5.048   1.384
  249NSC     F113230   6.859   5.013   1.350
  249NSC     F113231   6.929   5.066   1.550
  249NSC    CBT13232   7.051   4.607   1.736
  249NSC     F113233   7.108   4.530   1.827
  249NSC     F113234   6.967   4.692   1.795
  249NSC     F113235   6.987   4.531   1.648
  250NSC    NBT13236   4.996   7.215   5.546
  250NSC    SBT13237   5.045   7.200   5.699
  250NSC    SBT13238   4.942   7.096   5.450
  250NSC    OBT13239   5.044   6.994   5.418
  250NSC    CBT13240   4.919   7.189   5.291
  250NSC    OBT13241   4.808   7.047   5.484
  250NSC    OBT13242   5.158   7.107   5.717
  250NSC    OBT13243   5.063   7.334   5.761
  250NSC     F113244   5.036   7.242   5.254
  250NSC     F113245   4.877   7.106   5.197
  250NSC     F113246   4.829   7.286   5.309
  250NSC    CBT13247   4.900   7.125   5.788
  250NSC     F113248   4.913   7.149   5.918
  250NSC     F113249   4.787   7.181   5.744
  250NSC     F113250   4.900   6.994   5.767
  251NSC    NBT13251   5.707   6.158   0.311
  251NSC    SBT13252   5.865   6.188   0.300
  251NSC    SBT13253   5.596   6.249   0.387
  251NSC    OBT13254   5.615   6.258   0.533
  251NSC    CBT13255   5.446   6.142   0.366
  251NSC    OBT13256   5.563   6.374   0.316
  251NSC    OBT13257   5.934   6.199   0.430
  251NSC    OBT13258   5.929   6.096   0.203
  251NSC     F113259   5.468   6.023   0.424
  251NSC     F113260   5.342   6.201   0.426
  251NSC     F113261   5.420   6.127   0.237
  251NSC    CBT13262   5.875   6.355   0.220
  251NSC     F113263   5.996   6.370   0.168
  251NSC     F113264   5.784   6.364   0.124
  251NSC     F113265   5.856   6.449   0.313
  252NSC    NBT13266   1.272   6.102   7.781
  252NSC    SBT13267   1.345   5.970   7.723
  252NSC    SBT13268   1.344   6.234   7.841
  252NSC    OBT13269   1.419   6.210   7.966
  252NSC    CBT13270   1.195   6.330   7.896
  252NSC    OBT13271   1.409   6.319   7.740
  252NSC    OBT13272   1.433   5.902   7.821
  252NSC    OBT13273   1.248   5.882   7.655
  252NSC     F113274   1.126   6.259   7.986
  252NSC     F113275   1.235   6.444   7.953
  252NSC     F113276   1.118   6.357   7.791
  252NSC    CBT13277   1.456   6.034   7.588
  252NSC     F113278   1.487   5.933   7.508
  252NSC     F113279   1.392   6.127   7.519
  252NSC     F113280   1.567   6.082   7.643
  253NSC    NBT13281   4.585   0.812   4.403
  253NSC    SBT13282   4.681   0.942   4.394
  253NSC    SBT13283   4.625   0.660   4.362
  253NSC    OBT13284   4.652   0.642   4.218
  253NSC    CBT13285   4.462   0.576   4.388
  253NSC    OBT13286   4.717   0.594   4.457
  253NSC    OBT13287   4.731   0.970   4.258
  253NSC    OBT13288   4.618   1.057   4.463
  253NSC     F113289   4.369   0.632   4.309
  253NSC     F113290   4.473   0.447   4.356
  253NSC     F113291   4.425   0.587   4.516
  253NSC    CBT13292   4.828   0.899   4.498
  253NSC     F113293   4.891   1.011   4.532
  253NSC     F113294   4.789   0.835   4.607
  253NSC     F113295   4.911   0.823   4.426
  254NSC    NBT13296   3.179   1.643   4.076
  254NSC    SBT13297   3.035   1.708   4.109
  254NSC    SBT13298   3.300   1.617   4.181
  254NSC    OBT13299   3.358   1.740   4.236
  254NSC    CBT13300   3.430   1.552   4.064
  254NSC    OBT13301   3.276   1.506   4.275
  254NSC    OBT13302   3.043   1.845   4.165
  254NSC    OBT13303   2.943   1.692   3.994
  254NSC     F113304   3.456   1.645   3.971
  254NSC     F113305   3.541   1.528   4.133
  254NSC     F113306   3.387   1.440   4.007
  254NSC    CBT13307   2.965   1.600   4.243
  254NSC     F113308   2.833   1.618   4.247
  254NSC     F113309   2.991   1.473   4.216
  254NSC     F113310   3.017   1.636   4.360
  255NSC    NBT13311   4.401   0.371   6.242
  255NSC    SBT13312   4.549   0.310   6.265
  255NSC    SBT13313   4.284   0.385   6.353
  255NSC    OBT13314   4.234   0.255   6.403
  255NSC    CBT13315   4.146   0.449   6.247
  255NSC    OBT13316   4.307   0.490   6.453
  255NSC    OBT13317   4.550   0.170   6.313
  255NSC    OBT13318   4.636   0.337   6.148
  255NSC     F113319   4.120   0.361   6.149
  255NSC     F113320   4.037   0.465   6.321
  255NSC     F113321   4.181   0.566   6.194
  255NSC    CBT13322   4.621   0.413   6.402
  255NSC     F113323   4.753   0.401   6.400
  255NSC     F113324   4.588   0.540   6.384
  255NSC     F113325   4.575   0.368   6.519
  256NSC    NBT13326   4.924   5.095   4.622
  256NSC    SBT13327   4.842   5.226   4.576
  256NSC    SBT13328   4.862   4.947   4.651
  256NSC    OBT13329   4.771   4.943   4.767
  256NSC    CBT13330   5.015   4.859   4.709
  256NSC    OBT13331   4.820   4.875   4.531
  256NSC    OBT13332   4.737   5.267   4.671
  256NSC    OBT13333   4.935   5.334   4.535
  256NSC     F113334   5.064   4.921   4.818
  256NSC     F113335   4.983   4.734   4.742
  256NSC     F113336   5.106   4.858   4.612
  256NSC    CBT13337   4.756   5.175   4.420
  256NSC     F113338   4.722   5.284   4.353
  256NSC     F113339   4.838   5.101   4.346
  256NSC     F113340   4.646   5.107   4.452
  257NSC    NBT13341   6.331   2.541   1.346
  257NSC    SBT13342   6.479   2.577   1.402
  257NSC    SBT13343   6.285   2.401   1.278
  257NSC    OBT13344   6.351   2.373   1.149
  257NSC    CBT13345   6.110   2.444   1.232
  257NSC    OBT13346   6.273   2.289   1.373
  257NSC    OBT13347   6.585   2.568   1.300
  257NSC    OBT13348   6.476   2.703   1.479
  257NSC     F113349   6.111   2.549   1.148
  257NSC     F113350   6.055   2.340   1.170
  257NSC     F113351   6.041   2.473   1.341
  257NSC    CBT13352   6.515   2.445   1.527
  257NSC     F113353   6.611   2.488   1.607
  257NSC     F113354   6.406   2.420   1.599
  257NSC     F113355   6.556   2.335   1.464
  258NSC    NBT13356   0.570   1.696   2.443
  258NSC    SBT13357   0.433   1.780   2.423
  258NSC    SBT13358   0.719   1.757   2.461
  258NSC    OBT13359   0.769   1.828   2.342
  258NSC    CBT13360   0.818   1.599   2.466
  258NSC    OBT13361   0.743   1.820   2.592
  258NSC    OBT13362   0.434   1.868   2.304
  258NSC    OBT13363   0.315   1.692   2.435
  258NSC     F113364   0.799   1.532   2.351
  258NSC     F113365   0.947   1.629   2.477
  258NSC     F113366   0.779   1.525   2.569
  258NSC    CBT13367   0.425   1.892   2.571
  258NSC     F113368   0.300   1.933   2.586
  258NSC     F113369   0.463   1.825   2.679
  258NSC     F113370   0.504   1.998   2.550
  259NSC    NBT13371   1.218   0.655   3.849
  259NSC    SBT13372   1.274   0.503   3.858
  259NSC    SBT13373   1.064   0.702   3.862
  259NSC    OBT13374   0.977   0.653   3.753
  259NSC    CBT13375   1.082   0.883   3.827
  259NSC    OBT13376   1.010   0.695   3.998
  259NSC    OBT13377   1.217   0.412   3.758
  259NSC    OBT13378   1.422   0.503   3.867
  259NSC     F113379   1.135   0.900   3.705
  259NSC     F113380   0.962   0.941   3.830
  259NSC     F113381   1.160   0.939   3.919
  259NSC    CBT13382   1.216   0.443   4.024
  259NSC     F113383   1.291   0.339   4.060
  259NSC     F113384   1.230   0.540   4.114
  259NSC     F113385   1.089   0.404   4.014
  260NSC    NBT13386   3.156   4.708   6.285
  260NSC    SBT13387   3.313   4.741   6.300
  260NSC    SBT13388   3.032   4.808   6.320
  260NSC    OBT13389   3.022   4.842   6.463
  260NSC    CBT13390   2.889   4.694   6.289
  260NSC    OBT13391   3.015   4.918   6.224
  260NSC    OBT13392   3.354   4.777   6.437
  260NSC    OBT13393   3.394   4.636   6.235
  260NSC     F113394   2.898   4.588   6.370
  260NSC     F113395   2.776   4.759   6.316
  260NSC     F113396   2.889   4.656   6.162
  260NSC    CBT13397   3.339   4.893   6.196
  260NSC     F113398   3.468   4.902   6.167
  260NSC     F113399   3.269   4.882   6.084
  260NSC     F113400   3.302   5.000   6.266
  261NSC    NBT13401   0.422   1.273   2.229
  261NSC    SBT13402   0.508   1.374   2.322
  261NSC    SBT13403   0.465   1.214   2.084
  261NSC    OBT13404   0.477   1.317   1.979
  261NSC    CBT13405   0.311   1.121   2.040
  261NSC    OBT13406   0.571   1.111   2.091
  261NSC    OBT13407   0.541   1.502   2.257
  261NSC    OBT13408   0.447   1.385   2.457
  261NSC     F113409   0.207   1.206   2.036
  261NSC     F113410   0.326   1.066   1.919
  261NSC     F113411   0.288   1.025   2.130
  261NSC    CBT13412   0.669   1.284   2.350
  261NSC     F113413   0.728   1.336   2.456
  261NSC     F113414   0.645   1.155   2.370
  261NSC     F113415   0.747   1.302   2.243
  262NSC    NBT13416   4.603   5.224   0.619
  262NSC    SBT13417   4.572   5.235   0.778
  262NSC    SBT13418   4.532   5.309   0.500
  262NSC    OBT13419   4.388   5.280   0.484
  262NSC    CBT13420   4.612   5.230   0.352
  262NSC    OBT13421   4.572   5.450   0.495
  262NSC    OBT13422   4.432   5.206   0.813
  262NSC    OBT13423   4.674   5.161   0.856
  262NSC     F113424   4.584   5.099   0.351
  262NSC     F113425   4.562   5.286   0.242
  262NSC     F113426   4.743   5.249   0.357
  262NSC    CBT13427   4.601   5.414   0.818
  262NSC     F113428   4.620   5.425   0.949
  262NSC     F113429   4.709   5.458   0.754
  262NSC     F113430   4.493   5.484   0.783
  263NSC    NBT13431   4.205   5.317   7.089
  263NSC    SBT13432   4.093   5.432   7.079
  263NSC    SBT13433   4.342   5.306   7.003
  263NSC    OBT13434   4.320   5.285   6.859
  263NSC    CBT13435   4.407   5.143   7.064
  263NSC    OBT13436   4.445   5.404   7.041
  263NSC    OBT13437   4.033   5.445   6.945
  263NSC    OBT13438   3.996   5.421   7.191
  263NSC     F113439   4.317   5.047   7.037
  263NSC     F113440   4.521   5.115   7.000
  263NSC     F113441   4.430   5.150   7.195
  263NSC    CBT13442   4.186   5.590   7.111
  263NSC     F113443   4.099   5.684   7.147
  263NSC     F113444   4.273   5.571   7.209
  263NSC     F113445   4.247   5.628   6.999
  264NSC    NBT13446   7.493   5.756   4.037
  264NSC    SBT13447   7.445   5.813   4.181
  264NSC    SBT13448   7.473   5.828   3.893
  264NSC    OBT13449   7.333   5.843   3.852
  264NSC    CBT13450   7.541   5.696   3.781
  264NSC    OBT13451   7.562   5.944   3.872
  264NSC    OBT13452   7.301   5.839   4.190
  264NSC    OBT13453   7.502   5.732   4.291
  264NSC     F113454   7.469   5.584   3.797
  264NSC     F113455   7.530   5.737   3.655
  264NSC     F113456   7.668   5.673   3.811
  264NSC    CBT13457   7.530   5.978   4.195
  264NSC     F113458   7.533   6.013   4.323
  264NSC     F113459   7.654   5.969   4.149
  264NSC     F113460   7.460   6.069   4.127
  265NSC    NBT13461   7.616   3.456   7.672
  265NSC    SBT13462   7.709   3.588   7.681
  265NSC    SBT13463   7.454   3.450   7.688
  265NSC    OBT13464   7.407   3.486   7.823
  265NSC    CBT13465   7.428   3.266   7.678
  265NSC    OBT13466   7.380   3.506   7.574
  265NSC    OBT13467   7.699   3.659   7.810
  265NSC    OBT13468   7.847   3.557   7.637
  265NSC     F113469   7.495   3.206   7.776
  265NSC     F113470   7.298   3.241   7.692
  265NSC     F113471   7.469   3.222   7.559
  265NSC    CBT13472   7.641   3.702   7.552
  265NSC     F113473   7.733   3.792   7.522
  265NSC     F113474   7.609   3.633   7.443
  265NSC     F113475   7.533   3.764   7.601
  266NSC    NBT13476   6.819   6.966   3.058
  266NSC    SBT13477   6.978   6.958   3.029
  266NSC    SBT13478   6.721   7.091   3.026
  266NSC    OBT13479   6.751   7.212   3.105
  266NSC    CBT13480   6.562   7.027   3.098
  266NSC    OBT13481   6.692   7.109   2.883
  266NSC    OBT13482   7.056   7.064   3.097
  266NSC    OBT13483   7.028   6.821   3.049
  266NSC     F113484   6.580   7.002   3.229
  266NSC     F113485   6.468   7.119   3.084
  266NSC     F113486   6.526   6.915   3.035
  266NSC    CBT13487   6.994   6.990   2.847
  266NSC     F113488   7.112   6.945   2.806
  266NSC     F113489   6.897   6.926   2.782
  266NSC     F113490   6.988   7.122   2.825
  267NSC    NBT13491   6.804   1.144   1.929
  267NSC    SBT13492   6.848   1.104   2.079
  267NSC    SBT13493   6.658   1.122   1.862
  267NSC    OBT13494   6.621   0.981   1.845
  267NSC    CBT13495   6.693   1.181   1.689
  267NSC    OBT13496   6.554   1.214   1.912
  267NSC    OBT13497   6.833   0.960   2.109
  267NSC    OBT13498   6.980   1.161   2.112
  267NSC     F113499   6.790   1.106   1.635
  267NSC     F113500   6.583   1.168   1.615
  267NSC     F113501   6.730   1.309   1.692
  267NSC    CBT13502   6.728   1.194   2.189
  267NSC     F113503   6.779   1.202   2.310
  267NSC     F113504   6.707   1.316   2.140
  267NSC     F113505   6.614   1.124   2.194
  268NSC    NBT13506   4.884   2.241   2.105
  268NSC    SBT13507   4.734   2.253   2.165
  268NSC    SBT13508   4.984   2.114   2.120
  268NSC    OBT13509   5.027   2.088   2.259
  268NSC    CBT13510   5.136   2.183   2.038
  268NSC    OBT13511   4.946   1.997   2.039
  268NSC    OBT13512   4.726   2.239   2.311
  268NSC    OBT13513   4.665   2.372   2.109
  268NSC     F113514   5.176   2.293   2.103
  268NSC     F113515   5.233   2.092   2.043
  268NSC     F113516   5.108   2.212   1.911
  268NSC    CBT13517   4.644   2.107   2.093
  268NSC     F113518   4.513   2.131   2.100
  268NSC     F113519   4.679   2.091   1.966
  268NSC     F113520   4.672   1.999   2.165
  269NSC    NBT13521   5.326   3.546   6.729
  269NSC    SBT13522   5.244   3.684   6.709
  269NSC    SBT13523   5.271   3.409   6.797
  269NSC    OBT13524   5.238   3.423   6.940
  269NSC    CBT13525   5.425   3.306   6.794
  269NSC    OBT13526   5.175   3.335   6.714
  269NSC    OBT13527   5.194   3.742   6.835
  269NSC    OBT13528   5.320   3.776   6.622
  269NSC     F113529   5.521   3.368   6.864
  269NSC     F113530   5.400   3.188   6.850
  269NSC     F113531   5.465   3.288   6.668
  269NSC    CBT13532   5.095   3.635   6.610
  269NSC     F113533   5.045   3.743   6.552
  269NSC     F113534   5.130   3.547   6.516
  269NSC     F113535   5.004   3.583   6.692
  270NSC    NBT13536   2.067   6.623   7.515
  270NSC    SBT13537   2.036   6.472   7.563
  270NSC    SBT13538   2.211   6.698   7.518
  270NSC    OBT13539   2.264   6.720   7.653
  270NSC    CBT13540   2.160   6.867   7.460
  270NSC    OBT13541   2.305   6.650   7.415
  270NSC    OBT13542   2.070   6.446   7.704
  270NSC    OBT13543   1.899   6.431   7.522
  270NSC     F113544   2.070   6.918   7.546
  270NSC     F113545   2.267   6.947   7.459
  270NSC     F113546   2.109   6.860   7.338
  270NSC    CBT13547   2.150   6.367   7.461
  270NSC     F113548   2.104   6.242   7.461
  270NSC     F113549   2.153   6.413   7.336
  270NSC     F113550   2.271   6.368   7.516
  271NSC    NBT13551   5.994   6.864   0.855
  271NSC    SBT13552   6.033   7.019   0.829
  271NSC    SBT13553   6.098   6.740   0.868
  271NSC    OBT13554   6.172   6.711   0.744
  271NSC    CBT13555   5.977   6.599   0.883
  271NSC    OBT13556   6.174   6.738   0.994
  271NSC    OBT13557   6.108   7.042   0.705
  271NSC    OBT13558   5.915   7.106   0.848
  271NSC     F113559   5.899   6.596   0.773
  271NSC     F113560   6.045   6.485   0.891
  271NSC     F113561   5.902   6.616   0.991
  271NSC    CBT13562   6.147   7.063   0.969
  271NSC     F113563   6.150   7.194   0.982
  271NSC     F113564   6.102   7.008   1.082
  271NSC     F113565   6.270   7.019   0.940
  272NSC    NBT13566   4.384   1.746   7.076
  272NSC    SBT13567   4.503   1.853   7.101
  272NSC    SBT13568   4.234   1.751   7.138
  272NSC    OBT13569   4.230   1.735   7.285
  272NSC    CBT13570   4.167   1.591   7.073
  272NSC    OBT13571   4.148   1.855   7.080
  272NSC    OBT13572   4.540   1.868   7.243
  272NSC    OBT13573   4.615   1.829   7.008
  272NSC     F113574   4.242   1.489   7.117
  272NSC     F113575   4.042   1.575   7.117
  272NSC     F113576   4.167   1.593   6.940
  272NSC    CBT13577   4.431   2.016   7.048
  272NSC     F113578   4.530   2.100   7.025
  272NSC     F113579   4.359   1.999   6.937
  272NSC     F113580   4.355   2.064   7.147
  273NSC    NBT13581   5.510   1.415   2.275
  273NSC    SBT13582   5.573   1.366   2.416
  273NSC    SBT13583   5.522   1.340   2.132
  273NSC    OBT13584   5.659   1.334   2.079
  273NSC    CBT13585   5.436   1.464   2.023
  273NSC    OBT13586   5.440   1.218   2.121
  273NSC    OBT13587   5.720   1.350   2.413
  273NSC    OBT13588   5.521   1.446   2.528
  273NSC     F113589   5.502   1.581   2.030
  273NSC     F113590   5.439   1.421   1.898
  273NSC     F113591   5.310   1.480   2.063
  273NSC    CBT13592   5.502   1.196   2.441
  273NSC     F113593   5.512   1.165   2.569
  273NSC     F113594   5.374   1.196   2.405
  273NSC     F113595   5.572   1.109   2.369
  274NSC    NBT13596   0.796   3.527   7.635
  274NSC    SBT13597   0.950   3.505   7.682
  274NSC    SBT13598   0.704   3.421   7.555
  274NSC    OBT13599   0.751   3.392   7.418
  274NSC    CBT13600   0.551   3.524   7.530
  274NSC    OBT13601   0.659   3.306   7.635
  274NSC    OBT13602   1.042   3.477   7.571
  274NSC    OBT13603   0.992   3.613   7.774
  274NSC     F113604   0.583   3.634   7.460
  274NSC     F113605   0.462   3.453   7.460
  274NSC     F113606   0.500   3.557   7.647
  274NSC    CBT13607   0.945   3.351   7.786
  274NSC     F113608   1.053   3.349   7.862
  274NSC     F113609   0.837   3.353   7.863
  274NSC     F113610   0.945   3.245   7.706
  275NSC    NBT13611   4.664   7.399   2.642
  275NSC    SBT13612   4.526   7.395   2.557
  275NSC    SBT13613   4.815   7.389   2.583
  275NSC    OBT13614   4.845   7.259   2.521
  275NSC    CBT13615   4.911   7.388   2.741
  275NSC    OBT13616   4.860   7.510   2.512
  275NSC    OBT13617   4.509   7.272   2.477
  275NSC    OBT13618   4.411   7.432   2.642
  275NSC     F113619   4.874   7.283   2.816
  275NSC     F113620   5.041   7.377   2.713
  275NSC     F113621   4.890   7.502   2.808
  275NSC    CBT13622   4.543   7.535   2.435
  275NSC     F113623   4.422   7.567   2.391
  275NSC     F113624   4.598   7.640   2.495
  275NSC     F113625   4.618   7.494   2.333
  276NSC    NBT13626   2.539   0.547   6.766
  276NSC    SBT13627   2.561   0.707   6.754
  276NSC    SBT13628   2.648   0.432   6.733
  276NSC    OBT13629   2.686   0.426   6.590
  276NSC    CBT13630   2.544   0.280   6.759
  276NSC    OBT13631   2.757   0.421   6.831
  276NSC    OBT13632   2.597   0.752   6.618
  276NSC    OBT13633   2.448   0.780   6.817
  276NSC     F113634   2.439   0.283   6.676
  276NSC     F113635   2.617   0.172   6.733
  276NSC     F113636   2.502   0.276   6.886
  276NSC    CBT13637   2.708   0.742   6.862
  276NSC     F113638   2.707   0.871   6.893
  276NSC     F113639   2.699   0.670   6.974
  276NSC     F113640   2.819   0.714   6.795
  277NSC    NBT13641   7.693   4.076   1.094
  277NSC    SBT13642   7.663   4.163   1.227
  277NSC    SBT13643   7.652   3.921   1.068
  277NSC    OBT13644   7.720   3.826   1.158
  277NSC    CBT13645   7.731   3.894   0.903
  277NSC    OBT13646   7.508   3.900   1.045
  277NSC    OBT13647   7.721   4.105   1.350
  277NSC    OBT13648   7.693   4.306   1.204
  277NSC     F113649   7.863   3.915   0.913
  277NSC     F113650   7.711   3.768   0.865
  277NSC     F113651   7.678   3.977   0.813
  277NSC    CBT13652   7.478   4.155   1.247
  277NSC     F113653   7.440   4.255   1.325
  277NSC     F113654   7.420   4.167   1.128
  277NSC     F113655   7.446   4.040   1.305
  278NSC    NBT13656   2.487   4.834   3.164
  278NSC    SBT13657   2.588   4.713   3.129
  278NSC    SBT13658   2.459   4.898   3.310
  278NSC    OBT13659   2.396   4.804   3.405
  278NSC    CBT13660   2.324   5.018   3.268
  278NSC    OBT13661   2.568   4.981   3.362
  278NSC    OBT13662   2.559   4.588   3.200
  278NSC    OBT13663   2.605   4.700   2.982
  278NSC     F113664   2.220   4.952   3.216
  278NSC     F113665   2.284   5.080   3.379
  278NSC     F113666   2.369   5.108   3.181
  278NSC    CBT13667   2.753   4.772   3.191
  278NSC     F113668   2.849   4.702   3.131
  278NSC     F113669   2.768   4.901   3.163
  278NSC     F113670   2.760   4.751   3.323
  279NSC    NBT13671   2.990   3.624   5.997
  279NSC    SBT13672   2.962   3.742   5.890
  279NSC    SBT13673   2.923   3.608   6.144
  279NSC    OBT13674   2.959   3.716   6.238
  279NSC    CBT13675   3.015   3.460   6.206
  279NSC    OBT13676   2.782   3.567   6.141
  279NSC    OBT13677   2.992   3.877   5.940
  279NSC    OBT13678   3.022   3.708   5.759
  279NSC     F113679   3.146   3.487   6.208
  279NSC     F113680   2.974   3.433   6.330
  279NSC     F113681   2.991   3.355   6.127
  279NSC    CBT13682   2.779   3.735   5.861
  279NSC     F113683   2.752   3.796   5.747
  279NSC     F113684   2.739   3.608   5.854
  279NSC     F113685   2.717   3.799   5.960
  280NSC    NBT13686   4.901   6.158   3.114
  280NSC    SBT13687   5.059   6.192   3.116
  280NSC    SBT13688   4.827   6.044   3.025
  280NSC    OBT13689   4.833   6.070   2.880
  280NSC    CBT13690   4.650   6.077   3.070
  280NSC    OBT13691   4.852   5.906   3.069
  280NSC    OBT13692   5.112   6.231   2.984
  280NSC    OBT13693   5.091   6.283   3.228
  280NSC     F113694   4.618   6.203   3.037
  280NSC     F113695   4.571   5.993   3.002
  280NSC     F113696   4.633   6.058   3.201
  280NSC    CBT13697   5.140   6.031   3.160
  280NSC     F113698   5.262   6.056   3.205
  280NSC     F113699   5.070   5.970   3.255
  280NSC     F113700   5.149   5.955   3.050
  281NSC    NBT13701   0.940   1.964   3.345
  281NSC    SBT13702   1.013   1.986   3.488
  281NSC    SBT13703   0.919   2.077   3.229
  281NSC    OBT13704   0.830   2.187   3.269
  281NSC    CBT13705   0.820   1.979   3.107
  281NSC    OBT13706   1.043   2.113   3.157
  281NSC    OBT13707   0.950   2.090   3.571
  281NSC    OBT13708   1.035   1.855   3.554
  281NSC     F113709   0.706   1.937   3.164
  281NSC     F113710   0.789   2.057   3.003
  281NSC     F113711   0.891   1.875   3.064
  281NSC    CBT13712   1.183   2.047   3.445
  281NSC     F113713   1.262   2.027   3.549
  281NSC     F113714   1.229   1.980   3.340
  281NSC     F113715   1.176   2.178   3.420
  282NSC    NBT13716   7.718   3.092   0.573
  282NSC    SBT13717   7.697   3.245   0.621
  282NSC    SBT13718   7.697   2.958   0.663
  282NSC    OBT13719   7.793   2.947   0.775
  282NSC    CBT13720   7.753   2.829   0.542
  282NSC    OBT13721   7.557   2.926   0.692
  282NSC    OBT13722   7.781   3.284   0.735
  282NSC    OBT13723   7.700   3.336   0.505
  282NSC     F113724   7.880   2.853   0.506
  282NSC     F113725   7.746   2.709   0.601
  282NSC     F113726   7.673   2.831   0.435
  282NSC    CBT13727   7.521   3.250   0.681
  282NSC     F113728   7.481   3.377   0.682
  282NSC     F113729   7.443   3.180   0.600
  282NSC     F113730   7.516   3.202   0.805
  283NSC    NBT13731   1.307   3.429   0.374
  283NSC    SBT13732   1.346   3.556   0.466
  283NSC    SBT13733   1.409   3.318   0.314
  283NSC    OBT13734   1.505   3.371   0.216
  283NSC    CBT13735   1.290   3.217   0.213
  283NSC    OBT13736   1.461   3.224   0.415
  283NSC    OBT13737   1.442   3.648   0.402
  283NSC    OBT13738   1.225   3.620   0.521
  283NSC     F113739   1.233   3.295   0.120
  283NSC     F113740   1.357   3.119   0.151
  283NSC     F113741   1.197   3.164   0.292
  283NSC    CBT13742   1.433   3.482   0.613
  283NSC     F113743   1.431   3.571   0.712
  283NSC     F113744   1.370   3.372   0.651
  283NSC     F113745   1.560   3.456   0.580
  284NSC    NBT13746   3.114   2.789   5.449
  284NSC    SBT13747   3.255   2.770   5.526
  284NSC    SBT13748   2.993   2.888   5.491
  284NSC    OBT13749   2.929   2.853   5.620
  284NSC    CBT13750   2.866   2.842   5.363
  284NSC    OBT13751   3.020   3.030   5.467
  284NSC    OBT13752   3.241   2.726   5.666
  284NSC    OBT13753   3.348   2.690   5.443
  284NSC     F113754   2.837   2.712   5.374
  284NSC     F113755   2.755   2.913   5.384
  284NSC     F113756   2.914   2.868   5.242
  284NSC    CBT13757   3.328   2.940   5.530
  284NSC     F113758   3.458   2.929   5.552
  284NSC     F113759   3.307   3.001   5.414
  284NSC     F113760   3.273   3.008   5.631
  285NSC    NBT13761   0.540   7.300   5.430
  285NSC    SBT13762   0.563   7.459   5.447
  285NSC    SBT13763   0.651   7.191   5.384
  285NSC    OBT13764   0.698   7.209   5.245
  285NSC    CBT13765   0.546   7.038   5.377
  285NSC    OBT13766   0.754   7.162   5.485
  285NSC    OBT13767   0.607   7.526   5.324
  285NSC    OBT13768   0.447   7.521   5.515
  285NSC     F113769   0.446   7.056   5.290
  285NSC     F113770   0.621   6.935   5.337
  285NSC     F113771   0.497   7.012   5.498
  285NSC    CBT13772   0.703   7.474   5.569
  285NSC     F113773   0.700   7.595   5.621
  285NSC     F113774   0.688   7.383   5.665
  285NSC     F113775   0.818   7.456   5.504
  286NSC    NBT13776   3.102   6.385   6.726
  286NSC    SBT13777   3.155   6.285   6.842
  286NSC    SBT13778   3.173   6.524   6.679
  286NSC    OBT13779   3.175   6.628   6.783
  286NSC    CBT13780   3.047   6.584   6.556
  286NSC    OBT13781   3.296   6.505   6.601
  286NSC    OBT13782   3.168   6.347   6.974
  286NSC    OBT13783   3.079   6.158   6.839
  286NSC     F113784   2.929   6.600   6.618
  286NSC     F113785   3.086   6.701   6.508
  286NSC     F113786   3.036   6.495   6.457
  286NSC    CBT13787   3.327   6.239   6.788
  286NSC     F113788   3.362   6.127   6.850
  286NSC     F113789   3.329   6.219   6.656
  286NSC     F113790   3.411   6.336   6.823
  287NSC    NBT13791   0.965   5.167   2.600
  287NSC    SBT13792   1.125   5.167   2.628
  287NSC    SBT13793   0.871   5.037   2.576
  287NSC    OBT13794   0.903   4.964   2.451
  287NSC    CBT13795   0.709   5.120   2.541
  287NSC    OBT13796   0.847   4.956   2.696
  287NSC    OBT13797   1.204   5.106   2.520
  287NSC    OBT13798   1.170   5.302   2.670
  287NSC     F113799   0.722   5.200   2.434
  287NSC     F113800   0.618   5.027   2.514
  287NSC     F113801   0.671   5.191   2.647
  287NSC    CBT13802   1.146   5.060   2.777
  287NSC     F113803   1.264   5.087   2.832
  287NSC     F113804   1.049   5.084   2.865
  287NSC     F113805   1.145   4.932   2.739
  288NSC    NBT13806   2.274   3.438   1.691
  288NSC    SBT13807   2.320   3.422   1.845
  288NSC    SBT13808   2.190   3.562   1.628
  288NSC    OBT13809   2.053   3.574   1.680
  288NSC    CBT13810   2.168   3.499   1.454
  288NSC    OBT13811   2.268   3.686   1.613
  288NSC    OBT13812   2.209   3.422   1.942
  288NSC    OBT13813   2.416   3.309   1.859
  288NSC     F113814   2.101   3.383   1.457
  288NSC     F113815   2.096   3.588   1.385
  288NSC     F113816   2.287   3.483   1.397
  288NSC    CBT13817   2.421   3.574   1.880
  288NSC     F113818   2.497   3.552   1.986
  288NSC     F113819   2.497   3.602   1.775
  288NSC     F113820   2.338   3.675   1.907
  289NSC    NBT13821   5.964   3.096   1.302
  289NSC    SBT13822   6.116   3.047   1.321
  289NSC    SBT13823   5.889   3.214   1.384
  289NSC    OBT13824   5.871   3.185   1.528
  289NSC    CBT13825   5.718   3.200   1.313
  289NSC    OBT13826   5.933   3.350   1.348
  289NSC    OBT13827   6.147   2.999   1.457
  289NSC    OBT13828   6.156   2.955   1.212
  289NSC     F113829   5.670   3.077   1.337
  289NSC     F113830   5.638   3.289   1.372
  289NSC     F113831   5.721   3.223   1.182
  289NSC    CBT13832   6.218   3.200   1.294
  289NSC     F113833   6.342   3.164   1.266
  289NSC     F113834   6.168   3.270   1.193
  289NSC     F113835   6.218   3.272   1.407
  290NSC    NBT13836   0.827   4.696   6.623
  290NSC    SBT13837   0.833   4.841   6.695
  290NSC    SBT13838   0.703   4.591   6.629
  290NSC    OBT13839   0.678   4.536   6.764
  290NSC    CBT13840   0.778   4.449   6.535
  290NSC    OBT13841   0.586   4.631   6.550
  290NSC    OBT13842   0.817   4.836   6.841
  290NSC    OBT13843   0.950   4.918   6.646
  290NSC     F113844   0.889   4.408   6.598
  290NSC     F113845   0.691   4.348   6.532
  290NSC     F113846   0.807   4.487   6.411
  290NSC    CBT13847   0.685   4.932   6.628
  290NSC     F113848   0.704   5.062   6.646
  290NSC     F113849   0.671   4.906   6.499
  290NSC     F113850   0.577   4.894   6.697
  291NSC    NBT13851   0.317   5.258   6.521
  291NSC    SBT13852   0.306   5.419   6.508
  291NSC    SBT13853   0.299   5.150   6.401
  291NSC    OBT13854   0.163   5.146   6.345
  291NSC    CBT13855   0.314   4.992   6.498
  291NSC    OBT13856   0.411   5.146   6.306
  291NSC    OBT13857   0.175   5.466   6.458
  291NSC    OBT13858   0.353   5.484   6.632
  291NSC     F113859   0.217   4.988   6.591
  291NSC     F113860   0.298   4.889   6.415
  291NSC     F113861   0.433   4.986   6.555
  291NSC    CBT13862   0.432   5.464   6.379
  291NSC     F113863   0.461   5.593   6.392
  291NSC     F113864   0.542   5.392   6.397
  291NSC     F113865   0.380   5.442   6.258
  292NSC    NBT13866   7.515   4.777   7.764
  292NSC    SBT13867   7.525   4.627   7.705
  292NSC    SBT13868   7.403   4.889   7.728
  292NSC    OBT13869   7.406   4.934   7.588
  292NSC    CBT13870   7.469   5.033   7.824
  292NSC    OBT13871   7.271   4.862   7.787
  292NSC    OBT13872   7.536   4.622   7.558
  292NSC    OBT13873   7.625   4.548   7.779
  292NSC     F113874   7.592   5.063   7.781
  292NSC     F113875   7.390   5.138   7.805
  292NSC     F113876   7.472   5.003   7.954
  292NSC    CBT13877   7.361   4.550   7.748
  292NSC     F113878   7.374   4.418   7.743
  292NSC     F113879   7.326   4.587   7.871
  292NSC     F113880   7.270   4.589   7.659
  293NSC    NBT13881   7.673   3.198   4.577
  293NSC    SBT13882   7.786   3.082   4.582
  293NSC    SBT13883   7.692   3.354   4.617
  293NSC    OBT13884   7.721   3.375   4.760
  293NSC    CBT13885   7.517   3.414   4.596
  293NSC    OBT13886   7.771   3.432   4.520
  293NSC    OBT13887   7.844   3.062   4.716
  293NSC    OBT13888   7.738   2.960   4.514
  293NSC     F113889   7.436   3.346   4.678
  293NSC     F113890   7.512   3.543   4.628
  293NSC     F113891   7.479   3.398   4.470
  293NSC    CBT13892   7.923   3.146   4.474
  293NSC     F113893   7.999   3.044   4.438
  293NSC     F113894   7.871   3.204   4.366
  293NSC     F113895   7.996   3.233   4.544
  294NSC    NBT13896   5.751   7.064   0.221
  294NSC    SBT13897   5.731   6.904   0.229
  294NSC    SBT13898   5.644   7.173   0.166
  294NSC    OBT13899   5.616   7.160   0.022
  294NSC    CBT13900   5.746   7.328   0.180
  294NSC    OBT13901   5.529   7.195   0.255
  294NSC    OBT13902   5.705   6.841   0.098
  294NSC    OBT13903   5.839   6.841   0.308
  294NSC     F113904   5.856   7.315   0.104
  294NSC     F113905   5.674   7.431   0.134
  294NSC     F113906   5.779   7.349   0.307
  294NSC    CBT13907   5.577   6.881   0.331
  294NSC     F113908   5.576   6.757   0.377
  294NSC     F113909   5.578   6.967   0.432
  294NSC     F113910   5.471   6.899   0.253
  295NSC    NBT13911   1.390   7.491   4.318
  295NSC    SBT13912   1.378   7.642   4.261
  295NSC    SBT13913   1.514   7.428   4.402
  295NSC    OBT13914   1.639   7.420   4.324
  295NSC    CBT13915   1.457   7.252   4.417
  295NSC    OBT13916   1.524   7.477   4.540
  295NSC    OBT13917   1.486   7.680   4.169
  295NSC    OBT13918   1.241   7.669   4.213
  295NSC     F113919   1.441   7.200   4.294
  295NSC     F113920   1.550   7.182   4.481
  295NSC     F113921   1.343   7.248   4.484
  295NSC    CBT13922   1.398   7.750   4.412
  295NSC     F113923   1.348   7.869   4.385
  295NSC     F113924   1.332   7.696   4.514
  295NSC     F113925   1.528   7.761   4.440
  296NSC    NBT13926   2.769   5.414   6.190
  296NSC    SBT13927   2.855   5.340   6.074
  296NSC    SBT13928   2.609   5.440   6.190
  296NSC    OBT13929   2.564   5.532   6.083
  296NSC    CBT13930   2.592   5.539   6.346
  296NSC    OBT13931   2.528   5.320   6.212
  296NSC    OBT13932   2.845   5.404   5.942
  296NSC    OBT13933   2.992   5.312   6.121
  296NSC     F113934   2.667   5.650   6.337
  296NSC     F113935   2.465   5.574   6.362
  296NSC     F113936   2.632   5.465   6.450
  296NSC    CBT13937   2.775   5.173   6.058
  296NSC     F113938   2.861   5.091   5.999
  296NSC     F113939   2.744   5.126   6.178
  296NSC     F113940   2.667   5.184   5.981
  297NSC    NBT13941   0.335   4.879   3.872
  297NSC    SBT13942   0.310   4.722   3.903
  297NSC    SBT13943   0.458   4.970   3.926
  297NSC    OBT13944   0.459   4.988   4.073
  297NSC    CBT13945   0.407   5.136   3.860
  297NSC    OBT13946   0.587   4.941   3.862
  297NSC    OBT13947   0.298   4.690   4.046
  297NSC    OBT13948   0.202   4.669   3.817
  297NSC     F113949   0.288   5.169   3.910
  297NSC     F113950   0.497   5.227   3.897
  297NSC     F113951   0.401   5.131   3.727
  297NSC    CBT13952   0.465   4.638   3.843
  297NSC     F113953   0.439   4.510   3.824
  297NSC     F113954   0.504   4.693   3.729
  297NSC     F113955   0.559   4.650   3.937
  298NSC    NBT13956   2.186   5.531   4.297
  298NSC    SBT13957   2.314   5.478   4.215
  298NSC    SBT13958   2.049   5.449   4.327
  298NSC    OBT13959   1.971   5.417   4.206
  298NSC    CBT13960   1.950   5.581   4.412
  298NSC    OBT13961   2.064   5.342   4.427
  298NSC    OBT13962   2.285   5.437   4.077
  298NSC    OBT13963   2.428   5.572   4.231
  298NSC     F113964   1.934   5.685   4.329
  298NSC     F113965   1.830   5.532   4.442
  298NSC     F113966   2.012   5.619   4.523
  298NSC    CBT13967   2.366   5.324   4.306
  298NSC     F113968   2.492   5.297   4.274
  298NSC     F113969   2.356   5.344   4.437
  298NSC     F113970   2.289   5.223   4.267
  299NSC    NBT13971   4.926   3.371   7.243
  299NSC    SBT13972   4.849   3.510   7.274
  299NSC    SBT13973   5.058   3.314   7.319
  299NSC    OBT13974   5.178   3.397   7.299
  299NSC    CBT13975   5.091   3.162   7.218
  299NSC    OBT13976   5.032   3.265   7.455
  299NSC    OBT13977   4.934   3.629   7.260
  299NSC    OBT13978   4.720   3.514   7.202
  299NSC     F113979   5.111   3.196   7.090
  299NSC     F113980   5.200   3.101   7.264
  299NSC     F113981   4.987   3.079   7.227
  299NSC    CBT13982   4.803   3.497   7.454
  299NSC     F113983   4.705   3.583   7.478
  299NSC     F113984   4.762   3.374   7.481
  299NSC     F113985   4.909   3.530   7.528
  300NSC    NBT13986   5.207   7.241   5.103
  300NSC    SBT13987   5.354   7.255   5.168
  300NSC    SBT13988   5.156   7.311   4.966
  300NSC    OBT13989   5.149   7.458   4.973
  300NSC    CBT13990   4.978   7.257   4.967
  300NSC    OBT13991   5.212   7.252   4.843
  300NSC    OBT13992   5.393   7.393   5.201
  300NSC    OBT13993   5.371   7.157   5.278
  300NSC     F113994   4.918   7.303   5.078
  300NSC     F113995   4.916   7.309   4.861
  300NSC     F113996   4.971   7.124   4.962
  300NSC    CBT13997   5.470   7.197   5.035
  300NSC     F113998   5.586   7.164   5.091
  300NSC     F113999   5.419   7.091   4.974
  300NSC     F114000   5.490   7.297   4.949
  301NSC    NBT14001   3.640   4.552   1.203
  301NSC    SBT14002   3.502   4.617   1.147
  301NSC    SBT14003   3.783   4.546   1.127
  301NSC    OBT14004   3.782   4.463   1.006
  301NSC    CBT14005   3.881   4.448   1.250
  301NSC    OBT14006   3.852   4.676   1.118
  301NSC    OBT14007   3.456   4.556   1.020
  301NSC    OBT14008   3.401   4.626   1.254
  301NSC     F114009   3.823   4.329   1.268
  301NSC     F114010   4.004   4.429   1.202
  301NSC     F114011   3.887   4.514   1.365
  301NSC    CBT14012   3.547   4.793   1.107
  301NSC     F114013   3.435   4.864   1.102
  301NSC     F114014   3.626   4.841   1.203
  301NSC     F114015   3.608   4.797   0.989
  302NSC    NBT14016   0.381   1.027   6.076
  302NSC    SBT14017   0.253   1.125   6.068
  302NSC    SBT14018   0.381   0.870   6.118
  302NSC    OBT14019   0.341   0.845   6.258
  302NSC    CBT14020   0.563   0.836   6.115
  302NSC    OBT14021   0.324   0.781   6.015
  302NSC    OBT14022   0.179   1.137   6.196
  302NSC    OBT14023   0.289   1.252   6.003
  302NSC     F114024   0.625   0.916   6.203
  302NSC     F114025   0.584   0.709   6.151
  302NSC     F114026   0.611   0.856   5.993
  302NSC    CBT14027   0.138   1.041   5.949
  302NSC     F114028   0.051   1.130   5.903
  302NSC     F114029   0.208   0.990   5.848
  302NSC     F114030   0.071   0.945   6.013
  303NSC    NBT14031   2.001   1.302   0.844
  303NSC    SBT14032   1.907   1.234   0.730
  303NSC    SBT14033   1.993   1.455   0.897
  303NSC    OBT14034   2.028   1.555   0.795
  303NSC    CBT14035   2.138   1.456   1.013
  303NSC    OBT14036   1.877   1.483   0.982
  303NSC    OBT14037   1.914   1.302   0.600
  303NSC    OBT14038   1.927   1.088   0.727
  303NSC     F114039   2.250   1.426   0.945
  303NSC     F114040   2.151   1.577   1.066
  303NSC     F114041   2.119   1.366   1.110
  303NSC    CBT14042   1.734   1.258   0.794
  303NSC     F114043   1.654   1.172   0.732
  303NSC     F114044   1.731   1.236   0.925
  303NSC     F114045   1.694   1.382   0.765
  304NSC    NBT14046   5.272   3.671   5.457
  304NSC    SBT14047   5.353   3.807   5.426
  304NSC    SBT14048   5.112   3.657   5.483
  304NSC    OBT14049   5.066   3.724   5.606
  304NSC    CBT14050   5.101   3.476   5.523
  304NSC    OBT14051   5.030   3.674   5.362
  304NSC    OBT14052   5.340   3.909   5.531
  304NSC    OBT14053   5.491   3.776   5.383
  304NSC     F114054   5.177   3.449   5.630
  304NSC     F114055   4.975   3.445   5.551
  304NSC     F114056   5.143   3.404   5.418
  304NSC    CBT14057   5.270   3.877   5.274
  304NSC     F114058   5.353   3.962   5.216
  304NSC     F114059   5.242   3.778   5.190
  304NSC     F114060   5.159   3.941   5.311
  305NSC    NBT14061   0.733   0.609   0.444
  305NSC    SBT14062   0.589   0.677   0.422
  305NSC    SBT14063   0.762   0.459   0.501
  305NSC    OBT14064   0.720   0.440   0.641
  305NSC    CBT14065   0.947   0.462   0.509
  305NSC    OBT14066   0.729   0.351   0.407
  305NSC    OBT14067   0.507   0.687   0.544
  305NSC    OBT14068   0.603   0.803   0.345
  305NSC     F114069   0.987   0.561   0.590
  305NSC     F114070   0.990   0.346   0.558
  305NSC     F114071   0.997   0.481   0.387
  305NSC    CBT14072   0.499   0.561   0.307
  305NSC     F114073   0.400   0.627   0.250
  305NSC     F114074   0.583   0.517   0.214
  305NSC     F114075   0.450   0.460   0.379
  306NSC    NBT14076   5.164   2.388   6.259
  306NSC    SBT14077   5.230   2.457   6.389
  306NSC    SBT14078   5.188   2.429   6.104
  306NSC    OBT14079   5.138   2.564   6.070
  306NSC    CBT14080   5.069   2.314   6.020
  306NSC    OBT14081   5.320   2.392   6.051
  306NSC    OBT14082   5.200   2.601   6.402
  306NSC    OBT14083   5.204   2.376   6.510
  306NSC     F114084   4.945   2.337   6.065
  306NSC     F114085   5.072   2.336   5.889
  306NSC     F114086   5.104   2.188   6.045
  306NSC    CBT14087   5.413   2.443   6.361
  306NSC     F114088   5.475   2.457   6.477
  306NSC     F114089   5.441   2.324   6.309
  306NSC     F114090   5.452   2.541   6.278
  307NSC    NBT14091   6.509   1.948   2.413
  307NSC    SBT14092   6.426   1.855   2.311
  307NSC    SBT14093   6.628   1.900   2.513
  307NSC    OBT14094   6.584   1.806   2.618
  307NSC    CBT14095   6.661   2.059   2.603
  307NSC    OBT14096   6.755   1.869   2.445
  307NSC    OBT14097   6.355   1.743   2.375
  307NSC    OBT14098   6.344   1.938   2.220
  307NSC     F114099   6.549   2.098   2.666
  307NSC     F114100   6.756   2.038   2.694
  307NSC     F114101   6.700   2.152   2.517
  307NSC    CBT14102   6.556   1.778   2.202
  307NSC     F114103   6.498   1.736   2.090
  307NSC     F114104   6.648   1.869   2.172
  307NSC     F114105   6.610   1.674   2.265
  308NSC    NBT14106   1.509   6.432   5.588
  308NSC    SBT14107   1.603   6.553   5.538
  308NSC    SBT14108   1.380   6.444   5.686
  308NSC    OBT14109   1.413   6.489   5.823
  308NSC    CBT14110   1.336   6.265   5.705
  308NSC    OBT14111   1.262   6.505   5.623
  308NSC    OBT14112   1.668   6.628   5.647
  308NSC    OBT14113   1.694   6.506   5.431
  308NSC     F114114   1.440   6.199   5.759
  308NSC     F114115   1.232   6.254   5.787
  308NSC     F114116   1.306   6.213   5.586
  308NSC    CBT14117   1.487   6.671   5.454
  308NSC     F114118   1.557   6.750   5.374
  308NSC     F114119   1.398   6.603   5.383
  308NSC     F114120   1.427   6.746   5.547
  309NSC    NBT14121   7.437   4.668   3.066
  309NSC    SBT14122   7.505   4.615   2.929
  309NSC    SBT14123   7.506   4.762   3.179
  309NSC    OBT14124   7.619   4.698   3.248
  309NSC    CBT14125   7.370   4.766   3.305
  309NSC    OBT14126   7.523   4.902   3.138
  309NSC    OBT14127   7.627   4.535   2.951
  309NSC    OBT14128   7.403   4.553   2.841
  309NSC     F114129   7.344   4.642   3.346
  309NSC     F114130   7.410   4.838   3.410
  309NSC     F114131   7.261   4.822   3.252
  309NSC    CBT14132   7.558   4.769   2.841
  309NSC     F114133   7.575   4.741   2.713
  309NSC     F114134   7.464   4.862   2.853
  309NSC     F114135   7.674   4.811   2.893
  310NSC    NBT14136   3.546   1.488   0.943
  310NSC    SBT14137   3.668   1.551   1.029
  310NSC    SBT14138   3.441   1.375   0.993
  310NSC    OBT14139   3.504   1.244   1.019
  310NSC    CBT14140   3.345   1.350   0.836
  310NSC    OBT14141   3.342   1.422   1.090
  310NSC    OBT14142   3.766   1.451   1.076
  310NSC    OBT14143   3.725   1.669   0.960
  310NSC     F114144   3.428   1.310   0.738
  310NSC     F114145   3.253   1.255   0.856
  310NSC     F114146   3.285   1.463   0.801
  310NSC    CBT14147   3.587   1.619   1.182
  310NSC     F114148   3.668   1.708   1.237
  310NSC     F114149   3.472   1.679   1.149
  310NSC     F114150   3.566   1.520   1.268
  311NSC    NBT14151   4.497   0.361   5.554
  311NSC    SBT14152   4.652   0.384   5.515
  311NSC    SBT14153   4.429   0.385   5.700
  311NSC    OBT14154   4.480   0.294   5.804
  311NSC    CBT14155   4.257   0.324   5.665
  311NSC    OBT14156   4.413   0.526   5.736
  311NSC    OBT14157   4.747   0.304   5.595
  311NSC    OBT14158   4.671   0.376   5.369
  311NSC     F114159   4.262   0.196   5.627
  311NSC     F114160   4.185   0.333   5.777
  311NSC     F114161   4.202   0.399   5.570
  311NSC    CBT14162   4.685   0.562   5.558
  311NSC     F114163   4.792   0.602   5.492
  311NSC     F114164   4.580   0.636   5.522
  311NSC     F114165   4.708   0.571   5.689
  312NSC    NBT14166   5.235   6.531   0.733
  312NSC    SBT14167   5.111   6.536   0.837
  312NSC    SBT14168   5.384   6.590   0.758
  312NSC    OBT14169   5.389   6.736   0.773
  312NSC    CBT14170   5.460   6.558   0.591
  312NSC    OBT14171   5.465   6.510   0.851
  312NSC    OBT14172   5.073   6.672   0.879
  312NSC    OBT14173   5.000   6.451   0.789
  312NSC     F114174   5.389   6.624   0.498
  312NSC     F114175   5.585   6.603   0.591
  312NSC     F114176   5.459   6.428   0.566
  312NSC    CBT14177   5.175   6.449   0.989
  312NSC     F114178   5.072   6.410   1.062
  312NSC     F114179   5.247   6.343   0.953
  312NSC     F114180   5.249   6.535   1.060
  313NSC    NBT14181   4.692   1.926   3.180
  313NSC    SBT14182   4.814   1.941   3.076
  313NSC    SBT14183   4.535   1.908   3.144
  313NSC    OBT14184   4.476   2.025   3.077
  313NSC    CBT14185   4.462   1.911   3.315
  313NSC    OBT14186   4.500   1.775   3.091
  313NSC    OBT14187   4.801   2.056   2.985
  313NSC    OBT14188   4.944   1.929   3.145
  313NSC     F114189   4.492   2.027   3.374
  313NSC     F114190   4.329   1.901   3.306
  313NSC     F114191   4.510   1.809   3.386
  313NSC    CBT14192   4.803   1.788   2.970
  313NSC     F114193   4.920   1.770   2.910
  313NSC     F114194   4.774   1.683   3.045
  313NSC     F114195   4.710   1.807   2.876
  314NSC    NBT14196   4.193   5.565   1.894
  314NSC    SBT14197   4.163   5.524   2.048
  314NSC    SBT14198   4.336   5.611   1.832
  314NSC    OBT14199   4.387   5.738   1.887
  314NSC    CBT14200   4.285   5.652   1.659
  314NSC    OBT14201   4.433   5.501   1.818
  314NSC    OBT14202   4.195   5.630   2.145
  314NSC    OBT14203   4.028   5.464   2.060
  314NSC     F114204   4.192   5.749   1.661
  314NSC     F114205   4.391   5.695   1.591
  314NSC     F114206   4.236   5.543   1.600
  314NSC    CBT14207   4.281   5.384   2.082
  314NSC     F114208   4.236   5.316   2.187
  314NSC     F114209   4.286   5.303   1.976
  314NSC     F114210   4.401   5.434   2.110
  315NSC    NBT14211   1.558   6.144   0.799
  315NSC    SBT14212   1.478   6.230   0.688
  315NSC    SBT14213   1.495   6.040   0.905
  315NSC    OBT14214   1.405   6.102   1.004
  315NSC    CBT14215   1.647   5.996   1.003
  315NSC    OBT14216   1.450   5.913   0.846
  315NSC    OBT14217   1.374   6.318   0.744
  315NSC    OBT14218   1.572   6.294   0.594
  315NSC     F114219   1.697   6.107   1.058
  315NSC     F114220   1.613   5.911   1.100
  315NSC     F114221   1.736   5.939   0.923
  315NSC    CBT14222   1.389   6.102   0.586
  315NSC     F114223   1.356   6.156   0.470
  315NSC     F114224   1.469   5.998   0.566
  315NSC     F114225   1.278   6.065   0.651
  316NSC    NBT14226   3.629   3.268   5.435
  316NSC    SBT14227   3.486   3.343   5.424
  316NSC    SBT14228   3.775   3.338   5.439
  316NSC    OBT14229   3.811   3.408   5.315
  316NSC    CBT14230   3.884   3.187   5.440
  316NSC    OBT14231   3.806   3.407   5.566
  316NSC    OBT14232   3.472   3.426   5.303
  316NSC    OBT14233   3.376   3.248   5.449
  316NSC     F114234   3.860   3.115   5.330
  316NSC     F114235   4.011   3.226   5.440
  316NSC     F114236   3.859   3.115   5.549
  316NSC    CBT14237   3.483   3.459   5.569
  316NSC     F114238   3.357   3.493   5.593
  316NSC     F114239   3.534   3.399   5.675
  316NSC     F114240   3.553   3.569   5.538
  317NSC    NBT14241   1.078   2.159   7.541
  317NSC    SBT14242   1.029   2.223   7.681
  317NSC    SBT14243   1.034   2.015   7.479
  317NSC    OBT14244   1.080   1.900   7.560
  317NSC    CBT14245   1.142   2.010   7.328
  317NSC    OBT14246   0.897   2.010   7.428
  317NSC    OBT14247   1.060   2.140   7.799
  317NSC    OBT14248   1.070   2.365   7.690
  317NSC     F114249   1.270   2.018   7.364
  317NSC     F114250   1.122   1.895   7.264
  317NSC     F114251   1.110   2.112   7.248
  317NSC    CBT14252   0.844   2.227   7.667
  317NSC     F114253   0.797   2.315   7.754
  317NSC     F114254   0.809   2.265   7.544
  317NSC     F114255   0.795   2.107   7.695
  318NSC    NBT14256   5.988   4.317   1.274
  318NSC    SBT14257   6.132   4.245   1.265
  318NSC    SBT14258   5.958   4.466   1.331
  318NSC    OBT14259   5.985   4.481   1.475
  318NSC    CBT14260   5.772   4.469   1.319
  318NSC    OBT14261   6.003   4.575   1.242
  318NSC    OBT14262   6.200   4.231   1.395
  318NSC    OBT14263   6.123   4.121   1.185
  318NSC     F114264   5.722   4.369   1.393
  318NSC     F114265   5.727   4.585   1.365
  318NSC     F114266   5.736   4.454   1.192
  318NSC    CBT14267   6.236   4.360   1.163
  318NSC     F114268   6.339   4.292   1.115
  318NSC     F114269   6.164   4.408   1.063
  318NSC     F114270   6.281   4.458   1.242
  319NSC    NBT14271   2.819   1.814   7.844
  319NSC    SBT14272   2.949   1.756   7.921
  319NSC    SBT14273   2.817   1.934   7.735
  319NSC    OBT14274   2.854   2.065   7.790
  319NSC    CBT14275   2.634   1.947   7.705
  319NSC    OBT14276   2.873   1.898   7.604
  319NSC    OBT14277   3.021   1.857   8.000
  319NSC    OBT14278   2.916   1.631   7.993
  319NSC     F114279   2.572   1.976   7.821
  319NSC     F114280   2.611   2.045   7.618
  319NSC     F114281   2.588   1.832   7.656
  319NSC    CBT14282   3.065   1.704   7.785
  319NSC     F114283   3.153   1.619   7.835
  319NSC     F114284   2.995   1.645   7.688
  319NSC     F114285   3.129   1.811   7.739
  320NSC    NBT14286   4.654   2.033   6.540
  320NSC    SBT14287   4.731   2.170   6.581
  320NSC    SBT14288   4.689   1.937   6.413
  320NSC    OBT14289   4.666   2.001   6.282
  320NSC    CBT14290   4.551   1.813   6.429
  320NSC    OBT14291   4.812   1.859   6.429
  320NSC    OBT14292   4.729   2.273   6.475
  320NSC    OBT14293   4.688   2.215   6.715
  320NSC     F114294   4.433   1.876   6.420
  320NSC     F114295   4.561   1.725   6.329
  320NSC     F114296   4.561   1.750   6.545
  320NSC    CBT14297   4.908   2.119   6.602
  320NSC     F114298   4.970   2.210   6.675
  320NSC     F114299   4.914   2.001   6.664
  320NSC     F114300   4.966   2.112   6.482
  321NSC    NBT14301   4.135   2.606   7.338
  321NSC    SBT14302   4.285   2.549   7.321
  321NSC    SBT14303   3.997   2.528   7.301
  321NSC    OBT14304   3.981   2.501   7.157
  321NSC    CBT14305   3.873   2.662   7.337
  321NSC    OBT14306   3.962   2.419   7.394
  321NSC    OBT14307   4.319   2.512   7.183
  321NSC    OBT14308   4.382   2.638   7.389
  321NSC     F114309   3.900   2.769   7.260
  321NSC     F114310   3.751   2.618   7.309
  321NSC     F114311   3.880   2.696   7.466
  321NSC    CBT14312   4.287   2.392   7.420
  321NSC     F114313   4.413   2.361   7.447
  321NSC     F114314   4.220   2.409   7.533
  321NSC     F114315   4.233   2.294   7.347
  322NSC    NBT14316   2.831   4.280   5.106
  322NSC    SBT14317   2.962   4.215   5.038
  322NSC    SBT14318   2.749   4.410   5.054
  322NSC    OBT14319   2.826   4.535   5.058
  322NSC    CBT14320   2.625   4.428   5.191
  322NSC    OBT14321   2.668   4.385   4.933
  322NSC    OBT14322   3.076   4.307   5.025
  322NSC    OBT14323   2.993   4.084   5.100
  322NSC     F114324   2.689   4.447   5.307
  322NSC     F114325   2.548   4.534   5.167
  322NSC     F114326   2.549   4.318   5.198
  322NSC    CBT14327   2.908   4.174   4.865
  322NSC     F114328   2.990   4.083   4.815
  322NSC     F114329   2.784   4.125   4.867
  322NSC     F114330   2.914   4.284   4.790
  323NSC    NBT14331   7.450   4.970   1.142
  323NSC    SBT14332   7.483   4.830   1.069
  323NSC    SBT14333   7.341   4.995   1.259
  323NSC    OBT14334   7.201   4.974   1.216
  323NSC    CBT14335   7.355   5.179   1.279
  323NSC    OBT14336   7.379   4.941   1.390
  323NSC    OBT14337   7.367   4.769   1.002
  323NSC    OBT14338   7.605   4.842   0.986
  323NSC     F114339   7.325   5.239   1.162
  323NSC     F114340   7.268   5.220   1.371
  323NSC     F114341   7.478   5.211   1.316
  323NSC    CBT14342   7.530   4.716   1.208
  323NSC     F114343   7.599   4.614   1.157
  323NSC     F114344   7.606   4.781   1.296
  323NSC     F114345   7.419   4.669   1.265
  324NSC    NBT14346   1.591   6.844   1.572
  324NSC    SBT14347   1.664   6.988   1.575
  324NSC    SBT14348   1.501   6.779   1.690
  324NSC    OBT14349   1.575   6.751   1.814
  324NSC    CBT14350   1.468   6.611   1.617
  324NSC    OBT14351   1.368   6.841   1.705
  324NSC    OBT14352   1.759   7.006   1.685
  324NSC    OBT14353   1.716   7.022   1.440
  324NSC     F114354   1.584   6.548   1.596
  324NSC     F114355   1.395   6.540   1.704
  324NSC     F114356   1.401   6.625   1.503
  324NSC    CBT14357   1.525   7.109   1.604
  324NSC     F114358   1.565   7.229   1.566
  324NSC     F114359   1.419   7.072   1.533
  324NSC     F114360   1.497   7.111   1.734
  325NSC    NBT14361   6.579   0.890   6.894
  325NSC    SBT14362   6.446   0.976   6.926
  325NSC    SBT14363   6.708   0.872   6.990
  325NSC    OBT14364   6.783   0.997   7.014
  325NSC    CBT14365   6.819   0.773   6.878
  325NSC    OBT14366   6.685   0.784   7.106
  325NSC    OBT14367   6.472   1.118   6.953
  325NSC    OBT14368   6.341   0.948   6.826
  325NSC     F114369   6.843   0.844   6.766
  325NSC     F114370   6.935   0.750   6.939
  325NSC     F114371   6.761   0.657   6.848
  325NSC    CBT14372   6.381   0.903   7.085
  325NSC     F114373   6.254   0.935   7.097
  325NSC     F114374   6.394   0.770   7.081
  325NSC     F114375   6.450   0.955   7.187
  326NSC    NBT14376   6.599   1.659   5.715
  326NSC    SBT14377   6.604   1.545   5.600
  326NSC    SBT14378   6.549   1.639   5.868
  326NSC    OBT14379   6.406   1.607   5.880
  326NSC    CBT14380   6.562   1.814   5.929
  326NSC    OBT14381   6.642   1.563   5.953
  326NSC    OBT14382   6.473   1.484   5.571
  326NSC    OBT14383   6.678   1.594   5.482
  326NSC     F114384   6.483   1.893   5.854
  326NSC     F114385   6.521   1.819   6.056
  326NSC     F114386   6.688   1.855   5.921
  326NSC    CBT14387   6.711   1.411   5.672
  326NSC     F114388   6.756   1.335   5.573
  326NSC     F114389   6.814   1.465   5.736
  326NSC     F114390   6.637   1.336   5.754
  327NSC    NBT14391   1.481   5.229   2.412
  327NSC    SBT14392   1.404   5.235   2.270
  327NSC    SBT14393   1.553   5.352   2.489
  327NSC    OBT14394   1.669   5.408   2.417
  327NSC    CBT14395   1.627   5.262   2.634
  327NSC    OBT14396   1.459   5.449   2.549
  327NSC    OBT14397   1.488   5.282   2.159
  327NSC    OBT14398   1.331   5.109   2.245
  327NSC     F114399   1.711   5.168   2.589
  327NSC     F114400   1.695   5.349   2.709
  327NSC     F114401   1.530   5.206   2.706
  327NSC    CBT14402   1.272   5.363   2.295
  327NSC     F114403   1.179   5.346   2.203
  327NSC     F114404   1.218   5.349   2.416
  327NSC     F114405   1.326   5.484   2.281
  328NSC    NBT14406   6.291   3.120   4.800
  328NSC    SBT14407   6.348   2.982   4.861
  328NSC    SBT14408   6.141   3.147   4.745
  328NSC    OBT14409   6.106   3.069   4.625
  328NSC    CBT14410   6.160   3.321   4.682
  328NSC    OBT14411   6.038   3.156   4.850
  328NSC    OBT14412   6.339   2.868   4.768
  328NSC    OBT14413   6.480   3.003   4.923
  328NSC     F114414   6.255   3.324   4.588
  328NSC     F114415   6.045   3.361   4.628
  328NSC     F114416   6.193   3.401   4.783
  328NSC    CBT14417   6.234   2.943   5.002
  328NSC     F114418   6.294   2.858   5.084
  328NSC     F114419   6.205   3.055   5.069
  328NSC     F114420   6.123   2.886   4.954
  329NSC    NBT14421   3.373   2.957   6.428
  329NSC    SBT14422   3.432   3.083   6.345
  329NSC    SBT14423   3.235   2.953   6.513
  329NSC    OBT14424   3.234   3.043   6.629
  329NSC    CBT14425   3.248   2.783   6.586
  329NSC    OBT14426   3.114   2.949   6.430
  329NSC    OBT14427   3.454   3.203   6.427
  329NSC    OBT14428   3.546   3.041   6.261
  329NSC     F114429   3.358   2.775   6.661
  329NSC     F114430   3.141   2.761   6.664
  329NSC     F114431   3.251   2.692   6.489
  329NSC    CBT14432   3.297   3.125   6.224
  329NSC     F114433   3.349   3.196   6.125
  329NSC     F114434   3.244   3.013   6.175
  329NSC     F114435   3.205   3.198   6.286
  330NSC    NBT14436   7.624   7.202   7.405
  330NSC    SBT14437   7.492   7.108   7.401
  330NSC    SBT14438   7.734   7.210   7.524
  330NSC    OBT14439   7.680   7.261   7.652
  330NSC    CBT14440   7.842   7.347   7.460
  330NSC    OBT14441   7.822   7.092   7.532
  330NSC    OBT14442   7.399   7.130   7.513
  330NSC    OBT14443   7.431   7.111   7.266
  330NSC     F114444   7.768   7.458   7.446
  330NSC     F114445   7.939   7.370   7.548
  330NSC     F114446   7.895   7.311   7.344
  330NSC    CBT14447   7.558   6.936   7.420
  330NSC     F114448   7.467   6.850   7.376
  330NSC     F114449   7.670   6.922   7.348
  330NSC     F114450   7.581   6.912   7.549
  331NSC    NBT14451   4.396   2.758   0.950
  331NSC    SBT14452   4.382   2.675   0.812
  331NSC    SBT14453   4.283   2.775   1.065
  331NSC    OBT14454   4.163   2.849   1.020
  331NSC    CBT14455   4.370   2.892   1.179
  331NSC    OBT14456   4.260   2.654   1.145
  331NSC    OBT14457   4.272   2.721   0.725
  331NSC    OBT14458   4.513   2.662   0.745
  331NSC     F114459   4.399   3.005   1.114
  331NSC     F114460   4.290   2.921   1.281
  331NSC     F114461   4.482   2.835   1.225
  331NSC    CBT14462   4.339   2.502   0.866
  331NSC     F114463   4.366   2.419   0.767
  331NSC     F114464   4.410   2.470   0.973
  331NSC     F114465   4.208   2.497   0.892
  332NSC    NBT14466   4.865   1.422   6.190
  332NSC    SBT14467   4.935   1.530   6.091
  332NSC    SBT14468   4.797   1.453   6.334
  332NSC    OBT14469   4.892   1.501   6.436
  332NSC    CBT14470   4.754   1.281   6.388
  332NSC    OBT14471   4.668   1.523   6.325
  332NSC    OBT14472   5.048   1.603   6.152
  332NSC    OBT14473   4.963   1.468   5.959
  332NSC     F114474   4.866   1.207   6.394
  332NSC     F114475   4.698   1.285   6.508
  332NSC     F114476   4.669   1.227   6.301
  332NSC    CBT14477   4.802   1.655   6.058
  332NSC     F114478   4.833   1.722   5.948
  332NSC     F114479   4.685   1.593   6.041
  332NSC     F114480   4.797   1.740   6.160
  333NSC    NBT14481   3.713   3.980   5.824
  333NSC    SBT14482   3.561   4.033   5.837
  333NSC    SBT14483   3.822   4.024   5.711
  333NSC    OBT14484   3.786   3.984   5.574
  333NSC    CBT14485   3.963   3.911   5.756
  333NSC    OBT14486   3.876   4.160   5.729
  333NSC    OBT14487   3.479   4.008   5.717
  333NSC    OBT14488   3.502   3.989   5.965
  333NSC     F114489   3.922   3.784   5.747
  333NSC     F114490   4.063   3.931   5.671
  333NSC     F114491   4.003   3.938   5.880
  333NSC    CBT14492   3.578   4.217   5.852
  333NSC     F114493   3.467   4.266   5.905
  333NSC     F114494   3.681   4.247   5.931
  333NSC     F114495   3.595   4.269   5.730
  334NSC    NBT14496   1.862   4.934   1.374
  334NSC    SBT14497   1.964   4.830   1.445
  334NSC    SBT14498   1.701   4.941   1.393
  334NSC    OBT14499   1.631   4.822   1.342
  334NSC    CBT14500   1.659   5.075   1.271
  334NSC    OBT14501   1.657   4.993   1.523
  334NSC    OBT14502   1.934   4.689   1.416
  334NSC    OBT14503   2.104   4.872   1.423
  334NSC     F114504   1.700   5.038   1.149
  334NSC     F114505   1.528   5.093   1.270
  334NSC     F114506   1.720   5.188   1.307
  334NSC    CBT14507   1.934   4.854   1.627
  334NSC     F114508   2.039   4.807   1.693
  334NSC     F114509   1.920   4.984   1.653
  334NSC     F114510   1.825   4.785   1.663
  335NSC    NBT14511   6.805   5.316   7.250
  335NSC    SBT14512   6.689   5.207   7.222
  335NSC    SBT14513   6.939   5.294   7.339
  335NSC    OBT14514   6.911   5.271   7.482
  335NSC    CBT14515   7.011   5.465   7.333
  335NSC    OBT14516   7.040   5.208   7.276
  335NSC    OBT14517   6.623   5.157   7.344
  335NSC    OBT14518   6.597   5.256   7.116
  335NSC     F114519   6.923   5.552   7.385
  335NSC     F114520   7.123   5.468   7.405
  335NSC     F114521   7.038   5.497   7.207
  335NSC    CBT14522   6.778   5.063   7.145
  335NSC     F114523   6.689   4.989   7.081
  335NSC     F114524   6.869   5.107   7.060
  335NSC     F114525   6.833   4.991   7.242
  336NSC    NBT14526   3.898   2.923   7.070
  336NSC    SBT14527   3.752   2.988   7.044
  336NSC    SBT14528   4.042   2.989   7.034
  336NSC    OBT14529   4.065   3.007   6.889
  336NSC    CBT14530   4.154   2.849   7.081
  336NSC    OBT14531   4.081   3.100   7.122
  336NSC    OBT14532   3.726   3.020   6.903
  336NSC    OBT14533   3.647   2.910   7.112
  336NSC     F114534   4.123   2.740   7.008
  336NSC     F114535   4.280   2.883   7.055
  336NSC     F114536   4.141   2.822   7.211
  336NSC    CBT14537   3.758   3.150   7.135
  336NSC     F114538   3.634   3.191   7.156
  336NSC     F114539   3.820   3.134   7.251
  336NSC     F114540   3.822   3.240   7.059
  337NSC    NBT14541   0.482   4.823   1.933
  337NSC    SBT14542   0.590   4.809   1.813
  337NSC    SBT14543   0.329   4.770   1.933
  337NSC    OBT14544   0.243   4.837   1.834
  337NSC    CBT14545   0.271   4.836   2.097
  337NSC    OBT14546   0.316   4.624   1.944
  337NSC    OBT14547   0.547   4.871   1.686
  337NSC    OBT14548   0.725   4.847   1.859
  337NSC     F114549   0.283   4.969   2.098
  337NSC     F114550   0.143   4.804   2.114
  337NSC     F114551   0.344   4.782   2.194
  337NSC    CBT14552   0.599   4.626   1.782
  337NSC     F114553   0.712   4.600   1.717
  337NSC     F114554   0.598   4.561   1.897
  337NSC     F114555   0.496   4.590   1.705
  338NSC    NBT14556   0.915   5.278   3.046
  338NSC    SBT14557   1.037   5.369   2.990
  338NSC    SBT14558   0.790   5.328   3.137
  338NSC    OBT14559   0.829   5.377   3.270
  338NSC    CBT14560   0.706   5.166   3.170
  338NSC    OBT14561   0.691   5.408   3.063
  338NSC    OBT14562   1.114   5.437   3.095
  338NSC    OBT14563   1.117   5.292   2.892
  338NSC     F114564   0.791   5.084   3.234
  338NSC     F114565   0.600   5.187   3.247
  338NSC     F114566   0.668   5.112   3.055
  338NSC    CBT14567   0.953   5.501   2.891
  338NSC     F114568   1.041   5.554   2.807
  338NSC     F114569   0.852   5.449   2.822
  338NSC     F114570   0.909   5.596   2.974
  339NSC    NBT14571   4.923   7.382   4.414
  339NSC    SBT14572   4.933   7.539   4.452
  339NSC    SBT14573   4.912   7.258   4.518
  339NSC    OBT14574   5.032   7.240   4.602
  339NSC    CBT14575   4.917   7.115   4.399
  339NSC    OBT14576   4.781   7.246   4.584
  339NSC    OBT14577   5.049   7.573   4.536
  339NSC    OBT14578   4.915   7.622   4.331
  339NSC     F114579   5.032   7.120   4.329
  339NSC     F114580   4.913   7.001   4.467
  339NSC     F114581   4.814   7.122   4.316
  339NSC    CBT14582   4.781   7.571   4.555
  339NSC     F114583   4.758   7.702   4.555
  339NSC     F114584   4.677   7.507   4.502
  339NSC     F114585   4.805   7.531   4.680
  340NSC    NBT14586   4.396   2.676   5.957
  340NSC    SBT14587   4.338   2.753   6.087
  340NSC    SBT14588   4.514   2.564   5.955
  340NSC    OBT14589   4.646   2.617   5.995
  340NSC    CBT14590   4.528   2.536   5.772
  340NSC    OBT14591   4.474   2.434   6.010
  340NSC    OBT14592   4.440   2.830   6.161
  340NSC    OBT14593   4.215   2.827   6.052
  340NSC     F114594   4.560   2.651   5.712
  340NSC     F114595   4.625   2.448   5.749
  340NSC     F114596   4.413   2.490   5.724
  340NSC    CBT14597   4.281   2.617   6.200
  340NSC     F114598   4.196   2.667   6.287
  340NSC     F114599   4.221   2.522   6.129
  340NSC     F114600   4.387   2.568   6.265
  341NSC    NBT14601   6.151   4.808   4.732
  341NSC    SBT14602   6.030   4.783   4.627
  341NSC    SBT14603   6.190   4.716   4.859
  341NSC    OBT14604   6.087   4.713   4.964
  341NSC    CBT14605   6.328   4.817   4.932
  341NSC    OBT14606   6.253   4.588   4.824
  341NSC    OBT14607   5.897   4.778   4.690
  341NSC    OBT14608   6.042   4.874   4.511
  341NSC     F114609   6.281   4.939   4.964
  341NSC     F114610   6.372   4.758   5.043
  341NSC     F114611   6.427   4.828   4.844
  341NSC    CBT14612   6.063   4.613   4.559
  341NSC     F114613   5.997   4.600   4.445
  341NSC     F114614   6.193   4.598   4.537
  341NSC     F114615   6.018   4.522   4.646
  342NSC    NBT14616   4.347   6.459   3.538
  342NSC    SBT14617   4.395   6.304   3.536
  342NSC    SBT14618   4.213   6.518   3.608
  342NSC    OBT14619   4.088   6.470   3.548
  342NSC    CBT14620   4.224   6.696   3.554
  342NSC    OBT14621   4.220   6.523   3.755
  342NSC    OBT14622   4.297   6.212   3.476
  342NSC    OBT14623   4.533   6.293   3.484
  342NSC     F114624   4.223   6.702   3.420
  342NSC     F114625   4.118   6.762   3.601
  342NSC     F114626   4.336   6.750   3.602
  342NSC    CBT14627   4.407   6.258   3.716
  342NSC     F114628   4.484   6.151   3.727
  342NSC     F114629   4.460   6.359   3.784
  342NSC     F114630   4.285   6.229   3.761
  343NSC    NBT14631   1.591   0.983   4.539
  343NSC    SBT14632   1.465   0.892   4.494
  343NSC    SBT14633   1.641   1.121   4.469
  343NSC    OBT14634   1.691   1.102   4.331
  343NSC    CBT14635   1.794   1.155   4.569
  343NSC    OBT14636   1.553   1.236   4.493
  343NSC    OBT14637   1.474   0.842   4.355
  343NSC    OBT14638   1.436   0.789   4.596
  343NSC     F114639   1.879   1.052   4.556
  343NSC     F114640   1.852   1.265   4.523
  343NSC     F114641   1.760   1.171   4.696
  343NSC    CBT14642   1.320   1.008   4.499
  343NSC     F114643   1.209   0.936   4.506
  343NSC     F114644   1.329   1.086   4.606
  343NSC     F114645   1.318   1.080   4.387
  344NSC    NBT14646   6.359   1.769   7.194
  344NSC    SBT14647   6.496   1.804   7.116
  344NSC    SBT14648   6.241   1.872   7.234
  344NSC    OBT14649   6.281   1.976   7.331
  344NSC    CBT14650   6.130   1.759   7.331
  344NSC    OBT14651   6.159   1.917   7.119
  344NSC    OBT14652   6.579   1.905   7.183
  344NSC    OBT14653   6.567   1.680   7.077
  344NSC     F114654   6.197   1.710   7.436
  344NSC     F114655   6.025   1.829   7.375
  344NSC     F114656   6.087   1.661   7.253
  344NSC    CBT14657   6.439   1.879   6.956
  344NSC     F114658   6.539   1.872   6.868
  344NSC     F114659   6.335   1.812   6.909
  344NSC     F114660   6.409   2.007   6.977
  345NSC    NBT14661   5.212   3.005   0.731
  345NSC    SBT14662   5.107   3.103   0.657
  345NSC    SBT14663   5.301   3.039   0.862
  345NSC    OBT14664   5.401   3.145   0.840
  345NSC    CBT14665   5.401   2.883   0.875
  345NSC    OBT14666   5.224   3.044   0.988
  345NSC    OBT14667   5.167   3.229   0.609
  345NSC    OBT14668   5.027   3.028   0.558
  345NSC     F114669   5.472   2.867   0.762
  345NSC     F114670   5.485   2.894   0.978
  345NSC     F114671   5.320   2.779   0.893
  345NSC    CBT14672   4.986   3.150   0.790
  345NSC     F114673   4.875   3.194   0.733
  345NSC     F114674   4.958   3.043   0.865
  345NSC     F114675   5.038   3.248   0.864
  346NSC    NBT14676   3.078   4.924   5.677
  346NSC    SBT14677   3.128   4.992   5.539
  346NSC    SBT14678   3.171   4.865   5.795
  346NSC    OBT14679   3.251   4.747   5.755
  346NSC    CBT14680   3.041   4.796   5.908
  346NSC    OBT14681   3.240   4.967   5.875
  346NSC    OBT14682   3.212   4.903   5.456
  346NSC    OBT14683   3.015   5.056   5.468
  346NSC     F114684   2.969   4.704   5.842
  346NSC     F114685   3.100   4.739   6.013
  346NSC     F114686   2.961   4.894   5.950
  346NSC    CBT14687   3.237   5.132   5.593
  346NSC     F114688   3.249   5.218   5.492
  346NSC     F114689   3.183   5.193   5.697
  346NSC     F114690   3.358   5.084   5.623
  347NSC    NBT14691   1.387   6.595   6.331
  347NSC    SBT14692   1.407   6.474   6.226
  347NSC    SBT14693   1.253   6.686   6.350
  347NSC    OBT14694   1.220   6.769   6.233
  347NSC    CBT14695   1.314   6.808   6.477
  347NSC    OBT14696   1.142   6.616   6.416
  347NSC    OBT14697   1.389   6.513   6.085
  347NSC    OBT14698   1.531   6.400   6.256
  347NSC     F114699   1.419   6.874   6.428
  347NSC     F114700   1.217   6.894   6.504
  347NSC     F114701   1.348   6.743   6.588
  347NSC    CBT14702   1.270   6.355   6.266
  347NSC     F114703   1.302   6.236   6.217
  347NSC     F114704   1.255   6.346   6.398
  347NSC     F114705   1.157   6.398   6.208
  348NSC    NBT14706   4.278   3.215   2.638
  348NSC    SBT14707   4.437   3.249   2.636
  348NSC    SBT14708   4.185   3.179   2.510
  348NSC    OBT14709   4.171   3.291   2.415
  348NSC    CBT14710   4.020   3.167   2.593
  348NSC    OBT14711   4.210   3.046   2.453
  348NSC    OBT14712   4.472   3.365   2.553
  348NSC    OBT14713   4.491   3.251   2.774
  348NSC     F114714   3.990   3.284   2.651
  348NSC     F114715   3.927   3.141   2.501
  348NSC     F114716   4.022   3.069   2.683
  348NSC    CBT14717   4.515   3.100   2.556
  348NSC     F114718   4.644   3.098   2.588
  348NSC     F114719   4.456   2.990   2.601
  348NSC     F114720   4.502   3.111   2.424
  349NSC    NBT14721   1.682   1.430   5.587
  349NSC    SBT14722   1.811   1.518   5.548
  349NSC    SBT14723   1.677   1.269   5.608
  349NSC    OBT14724   1.705   1.192   5.486
  349NSC    CBT14725   1.495   1.246   5.636
  349NSC    OBT14726   1.741   1.223   5.732
  349NSC    OBT14727   1.875   1.478   5.420
  349NSC    OBT14728   1.782   1.662   5.562
  349NSC     F114729   1.427   1.289   5.529
  349NSC     F114730   1.470   1.116   5.653
  349NSC     F114731   1.457   1.313   5.745
  349NSC    CBT14732   1.935   1.480   5.681
  349NSC     F114733   2.026   1.577   5.683
  349NSC     F114734   1.873   1.475   5.799
  349NSC     F114735   1.995   1.365   5.654
  350NSC    NBT14736   0.705   5.728   5.571
  350NSC    SBT14737   0.775   5.582   5.580
  350NSC    SBT14738   0.598   5.790   5.676
  350NSC    OBT14739   0.470   5.718   5.680
  350NSC    CBT14740   0.559   5.950   5.590
  350NSC    OBT14741   0.657   5.830   5.805
  350NSC    OBT14742   0.679   5.470   5.580
  350NSC    OBT14743   0.885   5.571   5.481
  350NSC     F114744   0.508   5.924   5.469
  350NSC     F114745   0.467   6.016   5.661
  350NSC     F114746   0.669   6.024   5.580
  350NSC    CBT14747   0.859   5.581   5.745
  350NSC     F114748   0.952   5.487   5.745
  350NSC     F114749   0.916   5.699   5.768
  350NSC     F114750   0.769   5.553   5.839
  351NSC    NBT14751   7.283   2.853   2.215
  351NSC    SBT14752   7.157   2.952   2.244
  351NSC    SBT14753   7.306   2.763   2.083
  351NSC    OBT14754   7.206   2.656   2.065
  351NSC    CBT14755   7.461   2.672   2.133
  351NSC    OBT14756   7.345   2.839   1.964
  351NSC    OBT14757   7.027   2.884   2.242
  351NSC    OBT14758   7.183   3.035   2.363
  351NSC     F114759   7.437   2.602   2.245
  351NSC     F114760   7.495   2.588   2.036
  351NSC     F114761   7.559   2.759   2.154
  351NSC    CBT14762   7.158   3.070   2.100
  351NSC     F114763   7.089   3.178   2.135
  351NSC     F114764   7.283   3.105   2.072
  351NSC     F114765   7.100   3.012   1.996
  352NSC    NBT14766   1.570   5.086   6.966
  352NSC    SBT14767   1.617   5.182   7.088
  352NSC    SBT14768   1.569   4.924   6.966
  352NSC    OBT14769   1.704   4.864   6.974
  352NSC    CBT14770   1.515   4.892   6.791
  352NSC    OBT14771   1.464   4.863   7.049
  352NSC    OBT14772   1.757   5.161   7.129
  352NSC    OBT14773   1.579   5.322   7.060
  352NSC     F114774   1.603   4.947   6.706
  352NSC     F114775   1.511   4.761   6.769
  352NSC     F114776   1.394   4.944   6.772
  352NSC    CBT14777   1.511   5.131   7.231
  352NSC     F114778   1.511   5.229   7.321
  352NSC     F114779   1.387   5.109   7.189
  352NSC     F114780   1.563   5.021   7.286
  353NSC    NBT14781   3.774   5.096   2.425
  353NSC    SBT14782   3.768   5.066   2.584
  353NSC    SBT14783   3.878   5.196   2.349
  353NSC    OBT14784   3.860   5.338   2.385
  353NSC    CBT14785   3.813   5.184   2.176
  353NSC    OBT14786   4.016   5.145   2.342
  353NSC    OBT14787   3.744   5.186   2.666
  353NSC    OBT14788   3.678   4.952   2.611
  353NSC     F114789   3.685   5.224   2.173
  353NSC     F114790   3.885   5.264   2.097
  353NSC     F114791   3.822   5.059   2.133
  353NSC    CBT14792   3.938   5.005   2.627
  353NSC     F114793   3.931   4.939   2.741
  353NSC     F114794   3.982   4.924   2.531
  353NSC     F114795   4.019   5.110   2.641
  354NSC    NBT14796   1.838   5.829   6.635
  354NSC    SBT14797   1.980   5.844   6.710
  354NSC    SBT14798   1.779   5.696   6.564
  354NSC    OBT14799   1.856   5.653   6.446
  354NSC    CBT14800   1.621   5.763   6.493
  354NSC    OBT14801   1.736   5.591   6.658
  354NSC    OBT14802   2.096   5.815   6.624
  354NSC    OBT14803   1.987   5.972   6.784
  354NSC     F114804   1.650   5.864   6.409
  354NSC     F114805   1.559   5.667   6.426
  354NSC     F114806   1.543   5.807   6.592
  354NSC    CBT14807   1.978   5.713   6.842
  354NSC     F114808   2.068   5.743   6.933
  354NSC     F114809   1.857   5.708   6.898
  354NSC     F114810   2.009   5.596   6.786
  355NSC    NBT14811   5.580   1.175   1.507
  355NSC    SBT14812   5.473   1.085   1.427
  355NSC    SBT14813   5.660   1.304   1.449
  355NSC    OBT14814   5.754   1.272   1.340
  355NSC    CBT14815   5.770   1.341   1.594
  355NSC    OBT14816   5.577   1.424   1.433
  355NSC    OBT14817   5.526   1.023   1.304
  355NSC    OBT14818   5.403   0.993   1.519
  355NSC     F114819   5.848   1.235   1.620
  355NSC     F114820   5.848   1.445   1.564
  355NSC     F114821   5.696   1.370   1.700
  355NSC    CBT14822   5.342   1.206   1.372
  355NSC     F114823   5.232   1.138   1.344
  355NSC     F114824   5.318   1.292   1.470
  355NSC     F114825   5.385   1.268   1.262
  356NSC    NBT14826   3.959   2.310   1.653
  356NSC    SBT14827   3.926   2.344   1.808
  356NSC    SBT14828   3.861   2.332   1.526
  356NSC    OBT14829   3.740   2.248   1.528
  356NSC    CBT14830   3.966   2.259   1.391
  356NSC    OBT14831   3.843   2.473   1.487
  356NSC    OBT14832   3.808   2.272   1.860
  356NSC    OBT14833   4.048   2.334   1.891
  356NSC     F114834   3.991   2.131   1.419
  356NSC     F114835   3.899   2.265   1.276
  356NSC     F114836   4.080   2.328   1.381
  356NSC    CBT14837   3.882   2.524   1.808
  356NSC     F114838   3.895   2.571   1.931
  356NSC     F114839   3.965   2.590   1.727
  356NSC     F114840   3.756   2.538   1.768
  357NSC    NBT14841   2.622   0.800   5.306
  357NSC    SBT14842   2.525   0.722   5.409
  357NSC    SBT14843   2.725   0.733   5.200
  357NSC    OBT14844   2.836   0.658   5.264
  357NSC    CBT14845   2.806   0.886   5.132
  357NSC    OBT14846   2.660   0.670   5.085
  357NSC    OBT14847   2.596   0.634   5.503
  357NSC    OBT14848   2.428   0.816   5.470
  357NSC     F114849   2.865   0.953   5.232
  357NSC     F114850   2.899   0.850   5.044
  357NSC     F114851   2.715   0.962   5.073
  357NSC    CBT14852   2.422   0.612   5.300
  357NSC     F114853   2.313   0.577   5.367
  357NSC     F114854   2.387   0.678   5.190
  357NSC     F114855   2.492   0.503   5.271
  358NSC    NBT14856   2.012   5.413   6.208
  358NSC    SBT14857   1.958   5.324   6.332
  358NSC    SBT14858   2.108   5.363   6.087
  358NSC    OBT14859   2.243   5.322   6.130
  358NSC    CBT14860   2.134   5.524   5.998
  358NSC    OBT14861   2.040   5.277   5.989
  358NSC    OBT14862   2.064   5.263   6.413
  358NSC    OBT14863   1.854   5.397   6.407
  358NSC     F114864   2.192   5.611   6.081
  358NSC     F114865   2.215   5.503   5.894
  358NSC     F114866   2.018   5.571   5.955
  358NSC    CBT14867   1.867   5.184   6.250
  358NSC     F114868   1.784   5.130   6.338
  358NSC     F114869   1.797   5.230   6.146
  358NSC     F114870   1.955   5.091   6.211
  359NSC    NBT14871   1.704   7.409   0.535
  359NSC    SBT14872   1.863   7.411   0.505
  359NSC    SBT14873   1.593   7.511   0.477
  359NSC    OBT14874   1.609   7.650   0.523
  359NSC    CBT14875   1.442   7.450   0.567
  359NSC    OBT14876   1.561   7.491   0.334
  359NSC    OBT14877   1.929   7.537   0.543
  359NSC    OBT14878   1.928   7.288   0.555
  359NSC     F114879   1.463   7.460   0.699
  359NSC     F114880   1.338   7.526   0.534
  359NSC     F114881   1.418   7.323   0.534
  359NSC    CBT14882   1.875   7.399   0.320
  359NSC     F114883   1.996   7.358   0.287
  359NSC     F114884   1.785   7.312   0.275
  359NSC     F114885   1.854   7.520   0.267
  360NSC    NBT14886   6.880   0.560   1.508
  360NSC    SBT14887   6.964   0.428   1.549
  360NSC    SBT14888   6.886   0.705   1.581
  360NSC    OBT14889   6.836   0.704   1.720
  360NSC    CBT14890   6.755   0.795   1.486
  360NSC    OBT14891   7.010   0.780   1.556
  360NSC    OBT14892   6.940   0.382   1.687
  360NSC    OBT14893   6.951   0.324   1.445
  360NSC     F114894   6.638   0.730   1.499
  360NSC     F114895   6.742   0.918   1.534
  360NSC     F114896   6.789   0.801   1.357
  360NSC    CBT14897   7.142   0.482   1.541
  360NSC     F114898   7.218   0.374   1.531
  360NSC     F114899   7.160   0.560   1.435
  360NSC     F114900   7.172   0.546   1.654
  361NSC    NBT14901   0.508   2.754   6.603
  361NSC    SBT14902   0.404   2.789   6.485
  361NSC    SBT14903   0.522   2.612   6.681
  361NSC    OBT14904   0.404   2.575   6.761
  361NSC    CBT14905   0.651   2.656   6.807
  361NSC    OBT14906   0.584   2.505   6.600
  361NSC    OBT14907   0.263   2.773   6.523
  361NSC    OBT14908   0.438   2.919   6.423
  361NSC     F114909   0.606   2.756   6.883
  361NSC     F114910   0.675   2.550   6.884
  361NSC     F114911   0.763   2.692   6.745
  361NSC    CBT14912   0.439   2.663   6.353
  361NSC     F114913   0.391   2.708   6.238
  361NSC     F114914   0.570   2.644   6.343
  361NSC     F114915   0.377   2.549   6.385
  362NSC    NBT14916   6.259   1.115   0.715
  362NSC    SBT14917   6.411   1.169   0.716
  362NSC    SBT14918   6.124   1.202   0.738
  362NSC    OBT14919   6.112   1.259   0.873
  362NSC    CBT14920   5.996   1.067   0.734
  362NSC    OBT14921   6.089   1.290   0.625
  362NSC    OBT14922   6.450   1.234   0.843
  362NSC    OBT14923   6.504   1.065   0.667
  362NSC     F114924   6.022   0.979   0.831
  362NSC     F114925   5.876   1.120   0.755
  362NSC     F114926   5.999   1.007   0.615
  362NSC    CBT14927   6.413   1.302   0.586
  362NSC     F114928   6.539   1.323   0.550
  362NSC     F114929   6.343   1.263   0.481
  362NSC     F114930   6.364   1.414   0.638
  363NSC    NBT14931   1.980   0.640   6.297
  363NSC    SBT14932   1.825   0.631   6.342
  363NSC    SBT14933   2.095   0.529   6.324
  363NSC    OBT14934   2.127   0.510   6.467
  363NSC    CBT14935   2.243   0.618   6.255
  363NSC    OBT14936   2.083   0.408   6.241
  363NSC    OBT14937   1.805   0.616   6.487
  363NSC    OBT14938   1.746   0.738   6.278
  363NSC     F114939   2.260   0.734   6.322
  363NSC     F114940   2.351   0.543   6.271
  363NSC     F114941   2.224   0.643   6.126
  363NSC    CBT14942   1.764   0.474   6.264
  363NSC     F114943   1.631   0.478   6.258
  363NSC     F114944   1.813   0.462   6.141
  363NSC     F114945   1.800   0.370   6.340
  364NSC    NBT14946   6.768   0.755   2.876
  364NSC    SBT14947   6.726   0.889   2.956
  364NSC    SBT14948   6.860   0.634   2.932
  364NSC    OBT14949   7.000   0.673   2.959
  364NSC    CBT14950   6.870   0.528   2.779
  364NSC    OBT14951   6.794   0.549   3.032
  364NSC    OBT14952   6.841   0.970   3.001
  364NSC    OBT14953   6.621   0.963   2.883
  364NSC     F114954   6.926   0.599   2.680
  364NSC     F114955   6.947   0.422   2.805
  364NSC     F114956   6.748   0.488   2.745
  364NSC    CBT14957   6.642   0.827   3.110
  364NSC     F114958   6.568   0.925   3.160
  364NSC     F114959   6.564   0.724   3.080
  364NSC     F114960   6.735   0.792   3.199
  365NSC    NBT14961   1.132   5.855   3.095
  365NSC    SBT14962   1.183   5.829   3.246
  365NSC    SBT14963   1.173   5.980   2.999
  365NSC    OBT14964   1.125   6.110   3.048
  365NSC    CBT14965   1.065   5.944   2.852
  365NSC    OBT14966   1.310   5.974   2.948
  365NSC    OBT14967   1.150   5.938   3.340
  365NSC    OBT14968   1.145   5.693   3.291
  365NSC     F114969   0.937   5.943   2.890
  365NSC     F114970   1.083   6.040   2.761
  365NSC     F114971   1.099   5.826   2.800
  365NSC    CBT14972   1.369   5.825   3.232
  365NSC     F114973   1.417   5.763   3.339
  365NSC     F114974   1.404   5.759   3.123
  365NSC     F114975   1.414   5.950   3.230
  366NSC    NBT14976   2.046   1.495   5.136
  366NSC    SBT14977   1.936   1.568   5.042
  366NSC    SBT14978   2.204   1.530   5.146
  366NSC    OBT14979   2.279   1.505   5.021
  366NSC    CBT14980   2.261   1.397   5.261
  366NSC    OBT14981   2.233   1.656   5.216
  366NSC    OBT14982   1.967   1.562   4.899
  366NSC    OBT14983   1.800   1.524   5.080
  366NSC     F114984   2.235   1.277   5.207
  366NSC     F114985   2.393   1.408   5.280
  366NSC     F114986   2.198   1.409   5.378
  366NSC    CBT14987   1.945   1.747   5.092
  366NSC     F114988   1.833   1.806   5.054
  366NSC     F114989   1.958   1.756   5.224
  366NSC     F114990   2.048   1.804   5.030
  367NSC    NBT14991   7.394   4.535   2.622
  367NSC    SBT14992   7.536   4.545   2.545
  367NSC    SBT14993   7.247   4.558   2.558
  367NSC    OBT14994   7.223   4.696   2.512
  367NSC    CBT14995   7.142   4.542   2.710
  367NSC    OBT14996   7.202   4.450   2.469
  367NSC    OBT14997   7.561   4.676   2.484
  367NSC    OBT14998   7.645   4.493   2.630
  367NSC     F114999   7.178   4.635   2.800
  367NSC     F115000   7.014   4.562   2.677
  367NSC     F115001   7.156   4.420   2.762
  367NSC    CBT15002   7.521   4.423   2.406
  367NSC     F115003   7.643   4.392   2.364
  367NSC     F115004   7.460   4.313   2.449
  367NSC     F115005   7.453   4.479   2.306
  368NSC    NBT15006   2.253   4.522   3.684
  368NSC    SBT15007   2.167   4.530   3.820
  368NSC    SBT15008   2.385   4.609   3.646
  368NSC    OBT15009   2.358   4.753   3.633
  368NSC    CBT15010   2.414   4.551   3.473
  368NSC    OBT15011   2.506   4.571   3.720
  368NSC    OBT15012   2.111   4.663   3.848
  368NSC    OBT15013   2.071   4.418   3.828
  368NSC     F115014   2.306   4.578   3.398
  368NSC     F115015   2.519   4.616   3.422
  368NSC     F115016   2.438   4.420   3.473
  368NSC    CBT15017   2.291   4.496   3.955
  368NSC     F115018   2.225   4.459   4.064
  368NSC     F115019   2.373   4.399   3.917
  368NSC     F115020   2.358   4.608   3.981
  369NSC    NBT15021   4.771   2.318   0.697
  369NSC    SBT15022   4.738   2.161   0.710
  369NSC    SBT15023   4.664   2.439   0.685
  369NSC    OBT15024   4.584   2.436   0.561
  369NSC    CBT15025   4.779   2.583   0.662
  369NSC    OBT15026   4.592   2.469   0.810
  369NSC    OBT15027   4.659   2.107   0.597
  369NSC    OBT15028   4.860   2.084   0.744
  369NSC     F115029   4.853   2.564   0.552
  369NSC     F115030   4.707   2.694   0.647
  369NSC     F115031   4.858   2.595   0.768
  369NSC    CBT15032   4.630   2.148   0.861
  369NSC     F115033   4.633   2.023   0.904
  369NSC     F115034   4.677   2.229   0.956
  369NSC     F115035   4.505   2.180   0.827
  370NSC    NBT15036   0.240   5.729   4.891
  370NSC    SBT15037   0.239   5.756   5.050
  370NSC    SBT15038   0.158   5.613   4.812
  370NSC    OBT15039   0.201   5.476   4.846
  370NSC    CBT15040   0.221   5.640   4.640
  370NSC    OBT15041   0.013   5.637   4.803
  370NSC    OBT15042   0.284   5.641   5.131
  370NSC    OBT15043   0.305   5.885   5.081
  370NSC     F115044   0.354   5.624   4.638
  370NSC     F115045   0.166   5.550   4.559
  370NSC     F115046   0.189   5.762   4.599
  370NSC    CBT15047   0.060   5.784   5.092
  370NSC     F115048   0.053   5.847   5.208
  370NSC     F115049   0.003   5.857   4.997
  370NSC     F115050  -0.000   5.665   5.103
  371NSC    NBT15051   2.075   3.252   2.240
  371NSC    SBT15052   2.234   3.225   2.250
  371NSC    SBT15053   1.961   3.145   2.193
  371NSC    OBT15054   1.974   3.102   2.053
  371NSC    CBT15055   1.811   3.254   2.195
  371NSC    OBT15056   1.933   3.040   2.293
  371NSC    OBT15057   2.296   3.183   2.124
  371NSC    OBT15058   2.300   3.338   2.319
  371NSC     F115059   1.829   3.356   2.110
  371NSC     F115060   1.706   3.183   2.156
  371NSC     F115061   1.791   3.300   2.318
  371NSC    CBT15062   2.249   3.082   2.367
  371NSC     F115063   2.372   3.080   2.416
  371NSC     F115064   2.162   3.096   2.467
  371NSC     F115065   2.226   2.969   2.300
  372NSC    NBT15066   5.598   0.877   1.799
  372NSC    SBT15067   5.710   0.761   1.791
  372NSC    SBT15068   5.526   0.933   1.933
  372NSC    OBT15069   5.442   0.833   2.001
  372NSC    CBT15070   5.404   1.051   1.857
  372NSC    OBT15071   5.612   1.017   2.017
  372NSC    OBT15072   5.667   0.631   1.846
  372NSC    OBT15073   5.769   0.755   1.655
  372NSC     F115074   5.322   0.984   1.775
  372NSC     F115075   5.331   1.106   1.954
  372NSC     F115076   5.469   1.146   1.791
  372NSC    CBT15077   5.847   0.822   1.900
  372NSC     F115078   5.959   0.758   1.868
  372NSC     F115079   5.864   0.953   1.882
  372NSC     F115080   5.816   0.795   2.027
  373NSC    NBT15081   0.351   4.841   5.801
  373NSC    SBT15082   0.225   4.740   5.807
  373NSC    SBT15083   0.353   4.990   5.738
  373NSC    OBT15084   0.332   4.993   5.592
  373NSC    CBT15085   0.533   5.032   5.759
  373NSC    OBT15086   0.281   5.091   5.818
  373NSC    OBT15087   0.170   4.707   5.675
  373NSC    OBT15088   0.255   4.625   5.894
  373NSC     F115089   0.608   4.943   5.693
  373NSC     F115090   0.556   5.153   5.708
  373NSC     F115091   0.564   5.031   5.888
  373NSC    CBT15092   0.093   4.836   5.897
  373NSC     F115093   0.004   4.750   5.944
  373NSC     F115094   0.148   4.903   5.998
  373NSC     F115095   0.034   4.919   5.811
  374NSC    NBT15096   2.441   3.670   5.653
  374NSC    SBT15097   2.512   3.687   5.509
  374NSC    SBT15098   2.422   3.785   5.766
  374NSC    OBT15099   2.549   3.835   5.822
  374NSC    CBT15100   2.347   3.685   5.903
  374NSC    OBT15101   2.320   3.886   5.732
  374NSC    OBT15102   2.652   3.732   5.515
  374NSC    OBT15103   2.488   3.567   5.425
  374NSC     F115104   2.432   3.588   5.938
  374NSC     F115105   2.326   3.764   6.008
  374NSC     F115106   2.231   3.633   5.862
  374NSC    CBT15107   2.416   3.822   5.426
  374NSC     F115108   2.436   3.815   5.295
  374NSC     F115109   2.286   3.807   5.452
  374NSC     F115110   2.460   3.940   5.470
  375NSC    NBT15111   6.631   0.304   4.434
  375NSC    SBT15112   6.665   0.443   4.508
  375NSC    SBT15113   6.486   0.232   4.422
  375NSC    OBT15114   6.431   0.188   4.551
  375NSC    CBT15115   6.535   0.075   4.336
  375NSC    OBT15116   6.394   0.299   4.329
  375NSC    OBT15117   6.630   0.445   4.651
  375NSC    OBT15118   6.802   0.488   4.476
  375NSC     F115119   6.623   0.008   4.412
  375NSC     F115120   6.426  -0.001   4.319
  375NSC     F115121   6.588   0.103   4.217
  375NSC    CBT15122   6.554   0.567   4.425
  375NSC     F115123   6.602   0.689   4.448
  375NSC     F115124   6.551   0.544   4.295
  375NSC     F115125   6.432   0.558   4.478
  376NSC    NBT15126   1.552   6.886   0.692
  376NSC    SBT15127   1.682   6.908   0.785
  376NSC    SBT15128   1.532   6.771   0.579
  376NSC    OBT15129   1.624   6.785   0.464
  376NSC    CBT15130   1.366   6.821   0.512
  376NSC    OBT15131   1.512   6.636   0.633
  376NSC    OBT15132   1.806   6.933   0.710
  376NSC    OBT15133   1.653   7.005   0.893
  376NSC     F115134   1.373   6.946   0.463
  376NSC     F115135   1.333   6.738   0.412
  376NSC     F115136   1.275   6.814   0.608
  376NSC    CBT15137   1.705   6.745   0.872
  376NSC     F115138   1.780   6.765   0.980
  376NSC     F115139   1.587   6.697   0.909
  376NSC     F115140   1.768   6.661   0.790
  377NSC    NBT15141   7.458   1.881   5.229
  377NSC    SBT15142   7.553   1.751   5.233
  377NSC    SBT15143   7.336   1.910   5.125
  377NSC    OBT15144   7.381   1.927   4.985
  377NSC    CBT15145   7.288   2.081   5.178
  377NSC    OBT15146   7.217   1.828   5.148
  377NSC    OBT15147   7.628   1.728   5.108
  377NSC    OBT15148   7.634   1.749   5.356
  377NSC     F115149   7.393   2.163   5.165
  377NSC     F115150   7.189   2.125   5.100
  377NSC     F115151   7.247   2.079   5.305
  377NSC    CBT15152   7.435   1.608   5.250
  377NSC     F115153   7.502   1.503   5.296
  377NSC     F115154   7.339   1.640   5.336
  377NSC     F115155   7.385   1.578   5.130
  378NSC    NBT15156   1.347   0.504   2.223
  378NSC    SBT15157   1.404   0.431   2.090
  378NSC    SBT15158   1.199   0.487   2.286
  378NSC    OBT15159   1.091   0.538   2.200
  378NSC    CBT15160   1.209   0.609   2.426
  378NSC    OBT15161   1.176   0.357   2.352
  378NSC    OBT15162   1.326   0.460   1.968
  378NSC    OBT15163   1.550   0.452   2.078
  378NSC     F115164   1.234   0.731   2.376
  378NSC     F115165   1.093   0.612   2.490
  378NSC     F115166   1.306   0.573   2.510
  378NSC    CBT15167   1.384   0.249   2.124
  378NSC     F115168   1.464   0.182   2.042
  378NSC     F115169   1.416   0.224   2.250
  378NSC     F115170   1.257   0.215   2.099
  379NSC    NBT15171   7.133   1.315   6.944
  379NSC    SBT15172   7.183   1.163   6.929
  379NSC    SBT15173   7.137   1.431   6.830
  379NSC    OBT15174   7.274   1.470   6.790
  379NSC    CBT15175   7.075   1.576   6.928
  379NSC    OBT15176   7.039   1.413   6.722
  379NSC    OBT15177   7.326   1.150   6.894
  379NSC    OBT15178   7.140   1.082   7.045
  379NSC     F115179   7.156   1.598   7.032
  379NSC     F115180   7.075   1.684   6.850
  379NSC     F115181   6.951   1.551   6.971
  379NSC    CBT15182   7.087   1.096   6.785
  379NSC     F115183   7.089   0.964   6.791
  379NSC     F115184   6.961   1.139   6.792
  379NSC     F115185   7.145   1.135   6.672
  380NSC    NBT15186   0.654   5.053   5.213
  380NSC    SBT15187   0.499   5.010   5.231
  380NSC    SBT15188   0.710   5.181   5.130
  380NSC    OBT15189   0.685   5.174   4.985
  380NSC    CBT15190   0.893   5.153   5.147
  380NSC    OBT15191   0.685   5.311   5.195
  380NSC    OBT15192   0.429   4.984   5.104
  380NSC    OBT15193   0.486   4.904   5.333
  380NSC     F115194   0.924   5.035   5.094
  380NSC     F115195   0.957   5.249   5.081
  380NSC     F115196   0.927   5.157   5.275
  380NSC    CBT15197   0.418   5.159   5.306
  380NSC     F115198   0.304   5.121   5.363
  380NSC     F115199   0.498   5.212   5.398
  380NSC     F115200   0.391   5.247   5.210
  381NSC    NBT15201   4.935   2.226   5.386
  381NSC    SBT15202   5.045   2.136   5.463
  381NSC    SBT15203   4.826   2.173   5.278
  381NSC    OBT15204   4.886   2.122   5.153
  381NSC    CBT15205   4.749   2.335   5.229
  381NSC    OBT15206   4.716   2.095   5.337
  381NSC    OBT15207   5.138   2.065   5.373
  381NSC    OBT15208   5.109   2.214   5.572
  381NSC     F115209   4.843   2.415   5.178
  381NSC     F115210   4.656   2.312   5.136
  381NSC     F115211   4.693   2.392   5.335
  381NSC    CBT15212   4.946   2.006   5.551
  381NSC     F115213   5.020   1.955   5.648
  381NSC     F115214   4.836   2.060   5.602
  381NSC     F115215   4.916   1.909   5.464
  382NSC    NBT15216   0.827   5.115   4.208
  382NSC    SBT15217   0.809   5.101   4.368
  382NSC    SBT15218   0.837   5.252   4.123
  382NSC    OBT15219   0.713   5.333   4.125
  382NSC    CBT15220   0.843   5.183   3.950
  382NSC    OBT15221   0.964   5.325   4.139
  382NSC    OBT15222   0.687   5.166   4.420
  382NSC    OBT15223   0.830   4.962   4.411
  382NSC     F115224   0.732   5.112   3.927
  382NSC     F115225   0.848   5.284   3.863
  382NSC     F115226   0.951   5.107   3.936
  382NSC    CBT15227   0.953   5.195   4.439
  382NSC     F115228   0.972   5.156   4.564
  382NSC     F115229   1.062   5.170   4.367
  382NSC     F115230   0.925   5.325   4.438
  383NSC    NBT15231   0.653   4.898   0.533
  383NSC    SBT15232   0.526   4.997   0.542
  383NSC    SBT15233   0.805   4.931   0.581
  383NSC    OBT15234   0.870   5.038   0.503
  383NSC    CBT15235   0.891   4.775   0.526
  383NSC    OBT15236   0.823   4.934   0.727
  383NSC    OBT15237   0.543   5.123   0.468
  383NSC    OBT15238   0.401   4.923   0.512
  383NSC     F115239   0.876   4.761   0.394
  383NSC     F115240   1.021   4.785   0.554
  383NSC     F115241   0.839   4.671   0.590
  383NSC    CBT15242   0.514   5.041   0.722
  383NSC     F115243   0.392   5.085   0.746
  383NSC     F115244   0.538   4.934   0.796
  383NSC     F115245   0.602   5.138   0.748
  384NSC    NBT15246   2.383   0.417   2.837
  384NSC    SBT15247   2.471   0.282   2.820
  384NSC    SBT15248   2.432   0.556   2.905
  384NSC    OBT15249   2.462   0.545   3.049
  384NSC    CBT15250   2.274   0.653   2.898
  384NSC    OBT15251   2.527   0.633   2.823
  384NSC    OBT15252   2.521   0.227   2.946
  384NSC    OBT15253   2.401   0.186   2.731
  384NSC     F115254   2.179   0.588   2.968
  384NSC     F115255   2.293   0.772   2.954
  384NSC     F115256   2.236   0.668   2.772
  384NSC    CBT15257   2.620   0.337   2.723
  384NSC     F115258   2.675   0.230   2.667
  384NSC     F115259   2.583   0.422   2.628
  384NSC     F115260   2.708   0.393   2.806
  385NSC    NBT15261   3.971   2.308   2.384
  385NSC    SBT15262   3.920   2.248   2.525
  385NSC    SBT15263   4.002   2.464   2.350
  385NSC    OBT15264   3.882   2.550   2.355
  385NSC    CBT15265   4.042   2.451   2.170
  385NSC    OBT15266   4.124   2.516   2.413
  385NSC    OBT15267   3.791   2.303   2.570
  385NSC    OBT15268   3.928   2.100   2.524
  385NSC     F115269   3.937   2.400   2.104
  385NSC     F115270   4.068   2.573   2.122
  385NSC     F115271   4.149   2.374   2.153
  385NSC    CBT15272   4.048   2.302   2.648
  385NSC     F115273   4.039   2.224   2.755
  385NSC     F115274   4.169   2.291   2.594
  385NSC     F115275   4.023   2.428   2.683
  386NSC    NBT15276   1.815   3.871   6.392
  386NSC    SBT15277   1.721   3.805   6.506
  386NSC    SBT15278   1.975   3.851   6.375
  386NSC    OBT15279   2.054   3.906   6.486
  386NSC    CBT15280   2.007   3.967   6.233
  386NSC    OBT15281   2.013   3.718   6.324
  386NSC    OBT15282   1.760   3.840   6.643
  386NSC    OBT15283   1.578   3.827   6.474
  386NSC     F115284   1.971   4.091   6.269
  386NSC     F115285   2.138   3.966   6.206
  386NSC     F115286   1.939   3.927   6.126
  386NSC    CBT15287   1.747   3.622   6.487
  386NSC     F115288   1.645   3.559   6.544
  386NSC     F115289   1.752   3.591   6.358
  386NSC     F115290   1.860   3.588   6.549
  387NSC    NBT15291   1.234   6.375   7.134
  387NSC    SBT15292   1.123   6.413   7.245
  387NSC    SBT15293   1.284   6.226   7.094
  387NSC    OBT15294   1.353   6.155   7.203
  387NSC    CBT15295   1.418   6.268   6.972
  387NSC    OBT15296   1.185   6.149   7.016
  387NSC    OBT15297   1.155   6.365   7.381
  387NSC    OBT15298   1.087   6.556   7.236
  387NSC     F115299   1.511   6.342   7.034
  387NSC     F115300   1.474   6.155   6.929
  387NSC     F115301   1.366   6.334   6.870
  387NSC    CBT15302   0.970   6.322   7.191
  387NSC     F115303   0.865   6.378   7.248
  387NSC     F115304   0.959   6.329   7.059
  387NSC     F115305   0.979   6.195   7.231
  388NSC    NBT15306   3.765   0.838   5.711
  388NSC    SBT15307   3.839   0.695   5.728
  388NSC    SBT15308   3.789   0.945   5.592
  388NSC    OBT15309   3.925   1.004   5.590
  388NSC    CBT15310   3.680   1.084   5.650
  388NSC    OBT15311   3.733   0.905   5.462
  388NSC    OBT15312   3.986   0.704   5.738
  388NSC    OBT15313   3.773   0.616   5.835
  388NSC     F115314   3.722   1.125   5.771
  388NSC     F115315   3.689   1.185   5.564
  388NSC     F115316   3.554   1.042   5.657
  388NSC    CBT15317   3.802   0.604   5.571
  388NSC     F115318   3.820   0.475   5.591
  388NSC     F115319   3.676   0.627   5.535
  388NSC     F115320   3.886   0.646   5.476
  389NSC    NBT15321   3.130   5.093   1.528
  389NSC    SBT15322   3.054   4.955   1.490
  389NSC    SBT15323   3.178   5.208   1.424
  389NSC    OBT15324   3.284   5.164   1.331
  389NSC    CBT15325   3.265   5.323   1.542
  389NSC    OBT15326   3.069   5.289   1.368
  389NSC    OBT15327   3.130   4.869   1.398
  389NSC    OBT15328   3.004   4.889   1.613
  389NSC     F115329   3.365   5.257   1.602
  389NSC     F115330   3.316   5.425   1.473
  389NSC     F115331   3.179   5.369   1.632
  389NSC    CBT15332   2.901   5.010   1.399
  389NSC     F115333   2.813   4.911   1.402
  389NSC     F115334   2.850   5.117   1.459
  389NSC     F115335   2.934   5.036   1.273
  390NSC    NBT15336   0.957   5.699   4.814
  390NSC    SBT15337   0.865   5.574   4.858
  390NSC    SBT15338   0.907   5.850   4.783
  390NSC    OBT15339   0.819   5.861   4.665
  390NSC    CBT15340   1.067   5.927   4.728
  390NSC    OBT15341   0.868   5.926   4.903
  390NSC    OBT15342   0.758   5.541   4.761
  390NSC    OBT15343   0.948   5.460   4.902
  390NSC     F115344   1.114   5.861   4.621
  390NSC     F115345   1.046   6.054   4.695
  390NSC     F115346   1.156   5.921   4.827
  390NSC    CBT15347   0.779   5.632   5.013
  390NSC     F115348   0.736   5.526   5.079
  390NSC     F115349   0.865   5.700   5.088
  390NSC     F115350   0.675   5.708   4.978
  391NSC    NBT15351   7.082   3.763   4.607
  391NSC    SBT15352   7.019   3.823   4.743
  391NSC    SBT15353   7.232   3.788   4.550
  391NSC    OBT15354   7.258   3.928   4.512
  391NSC    CBT15355   7.221   3.697   4.389
  391NSC    OBT15356   7.338   3.719   4.626
  391NSC    OBT15357   7.018   3.971   4.748
  391NSC    OBT15358   6.890   3.758   4.774
  391NSC     F115359   7.124   3.751   4.314
  391NSC     F115360   7.337   3.710   4.324
  391NSC     F115361   7.196   3.569   4.411
  391NSC    CBT15362   7.135   3.766   4.877
  391NSC     F115363   7.072   3.773   4.993
  391NSC     F115364   7.172   3.641   4.854
  391NSC     F115365   7.241   3.848   4.880
  392NSC    NBT15366   3.710   1.938   4.324
  392NSC    SBT15367   3.630   1.989   4.455
  392NSC    SBT15368   3.694   1.795   4.251
  392NSC    OBT15369   3.737   1.680   4.334
  392NSC    CBT15370   3.826   1.809   4.121
  392NSC    OBT15371   3.569   1.779   4.175
  392NSC    OBT15372   3.648   1.904   4.574
  392NSC    OBT15373   3.653   2.134   4.477
  392NSC     F115374   3.945   1.828   4.181
  392NSC     F115375   3.831   1.697   4.051
  392NSC     F115376   3.799   1.912   4.041
  392NSC    CBT15377   3.450   1.976   4.408
  392NSC     F115378   3.379   2.053   4.488
  392NSC     F115379   3.434   2.017   4.282
  392NSC     F115380   3.411   1.850   4.422
  393NSC    NBT15381   5.964   4.124   3.087
  393NSC    SBT15382   5.890   4.127   3.231
  393NSC    SBT15383   6.066   4.236   3.028
  393NSC    OBT15384   6.002   4.367   3.003
  393NSC    CBT15385   6.096   4.167   2.858
  393NSC    OBT15386   6.198   4.237   3.092
  393NSC    OBT15387   5.804   4.245   3.251
  393NSC    OBT15388   5.826   3.997   3.259
  393NSC     F115389   5.979   4.157   2.793
  393NSC     F115390   6.176   4.248   2.791
  393NSC     F115391   6.152   4.046   2.869
  393NSC    CBT15392   6.028   4.141   3.354
  393NSC     F115393   5.983   4.102   3.473
  393NSC     F115394   6.129   4.063   3.317
  393NSC     F115395   6.067   4.269   3.362
  394NSC    NBT15396   7.135   7.759   4.802
  394NSC    SBT15397   7.270   7.813   4.874
  394NSC    SBT15398   7.092   7.604   4.781
  394NSC    OBT15399   7.182   7.528   4.692
  394NSC    CBT15400   6.937   7.626   4.682
  394NSC    OBT15401   7.048   7.536   4.905
  394NSC    OBT15402   7.394   7.765   4.812
  394NSC    OBT15403   7.262   7.959   4.896
  394NSC     F115404   6.966   7.691   4.568
  394NSC     F115405   6.887   7.506   4.651
  394NSC     F115406   6.848   7.695   4.752
  394NSC    CBT15407   7.264   7.739   5.044
  394NSC     F115408   7.344   7.809   5.123
  394NSC     F115409   7.139   7.744   5.091
  394NSC     F115410   7.308   7.613   5.038
  395NSC    NBT15411   3.142   3.277   5.644
  395NSC    SBT15412   3.147   3.219   5.795
  395NSC    SBT15413   3.038   3.386   5.585
  395NSC    OBT15414   2.898   3.340   5.581
  395NSC    CBT15415   3.090   3.389   5.407
  395NSC    OBT15416   3.061   3.523   5.633
  395NSC    OBT15417   3.022   3.153   5.837
  395NSC    OBT15418   3.270   3.141   5.816
  395NSC     F115419   3.076   3.266   5.355
  395NSC     F115420   3.012   3.473   5.339
  395NSC     F115421   3.217   3.428   5.397
  395NSC    CBT15422   3.166   3.370   5.901
  395NSC     F115423   3.212   3.332   6.020
  395NSC     F115424   3.251   3.454   5.845
  395NSC     F115425   3.046   3.426   5.918
  396NSC    NBT15426   7.151   5.121   1.991
  396NSC    SBT15427   7.100   4.969   1.969
  396NSC    SBT15428   7.072   5.241   2.066
  396NSC    OBT15429   6.948   5.282   1.997
  396NSC    CBT15430   7.189   5.381   2.036
  396NSC    OBT15431   7.065   5.227   2.212
  396NSC    OBT15432   6.973   4.959   1.895
  396NSC    OBT15433   7.209   4.884   1.919
  396NSC     F115434   7.205   5.399   1.905
  396NSC     F115435   7.139   5.492   2.089
  396NSC     F115436   7.306   5.354   2.093
  396NSC    CBT15437   7.065   4.908   2.141
  396NSC     F115438   7.064   4.775   2.139
  396NSC     F115439   7.160   4.950   2.224
  396NSC     F115440   6.945   4.952   2.180
  397NSC    NBT15441   4.083   4.386   7.031
  397NSC    SBT15442   4.023   4.239   7.001
  397NSC    SBT15443   4.024   4.494   7.138
  397NSC    OBT15444   3.890   4.544   7.104
  397NSC    CBT15445   4.137   4.637   7.104
  397NSC    OBT15446   4.049   4.458   7.279
  397NSC    OBT15447   3.883   4.239   6.955
  397NSC    OBT15448   4.117   4.162   6.917
  397NSC     F115449   4.125   4.674   6.976
  397NSC     F115450   4.102   4.739   7.182
  397NSC     F115451   4.263   4.602   7.130
  397NSC    CBT15452   4.025   4.153   7.165
  397NSC     F115453   4.019   4.022   7.145
  397NSC     F115454   4.136   4.183   7.231
  397NSC     F115455   3.917   4.191   7.235
  398NSC    NBT15456   5.127   5.119   1.692
  398NSC    SBT15457   5.283   5.126   1.649
  398NSC    SBT15458   5.067   5.054   1.829
  398NSC    OBT15459   5.088   4.909   1.840
  398NSC    CBT15460   4.885   5.074   1.797
  398NSC    OBT15461   5.093   5.135   1.950
  398NSC    OBT15462   5.349   4.994   1.641
  398NSC    OBT15463   5.300   5.213   1.531
  398NSC     F115464   4.853   5.007   1.685
  398NSC     F115465   4.817   5.022   1.899
  398NSC     F115466   4.856   5.202   1.783
  398NSC    CBT15467   5.365   5.217   1.789
  398NSC     F115468   5.481   5.265   1.745
  398NSC     F115469   5.287   5.317   1.829
  398NSC     F115470   5.388   5.132   1.889
  399NSC    NBT15471   5.798   0.737   4.979
  399NSC    SBT15472   5.717   0.753   5.119
  399NSC    SBT15473   5.959   0.740   4.960
  399NSC    OBT15474   6.021   0.870   4.993
  399NSC    CBT15475   5.970   0.729   4.775
  399NSC    OBT15476   6.027   0.619   5.009
  399NSC    OBT15477   5.744   0.880   5.189
  399NSC    OBT15478   5.574   0.720   5.099
  399NSC     F115479   5.906   0.833   4.720
  399NSC     F115480   6.098   0.733   4.739
  399NSC     F115481   5.915   0.615   4.734
  399NSC    CBT15482   5.783   0.617   5.226
  399NSC     F115483   5.696   0.594   5.324
  399NSC     F115484   5.799   0.507   5.154
  399NSC     F115485   5.899   0.657   5.279
  400NSC    NBT15486   7.489   2.038   7.187
  400NSC    SBT15487   7.650   2.056   7.181
  400NSC    SBT15488   7.407   1.899   7.172
  400NSC    OBT15489   7.419   1.837   7.038
  400NSC    CBT15490   7.233   1.964   7.177
  400NSC    OBT15491   7.417   1.810   7.288
  400NSC    OBT15492   7.711   2.010   7.055
  400NSC    OBT15493   7.688   2.192   7.224
  400NSC     F115494   7.215   2.050   7.076
  400NSC     F115495   7.148   1.862   7.162
  400NSC     F115496   7.211   2.024   7.293
  400NSC    CBT15497   7.714   1.943   7.315
  400NSC     F115498   7.836   1.982   7.347
  400NSC     F115499   7.635   1.952   7.422
  400NSC     F115500   7.718   1.819   7.268
  401NSC    NBT15501   5.324   7.298   0.945
  401NSC    SBT15502   5.426   7.422   0.971
  401NSC    SBT15503   5.309   7.165   1.036
  401NSC    OBT15504   5.429   7.079   1.036
  401NSC    CBT15505   5.186   7.070   0.934
  401NSC    OBT15506   5.243   7.187   1.165
  401NSC    OBT15507   5.568   7.383   0.973
  401NSC    OBT15508   5.393   7.535   0.882
  401NSC     F115509   5.236   7.048   0.812
  401NSC     F115510   5.162   6.953   0.992
  401NSC     F115511   5.073   7.140   0.925
  401NSC    CBT15512   5.383   7.481   1.142
  401NSC     F115513   5.429   7.605   1.156
  401NSC     F115514   5.251   7.480   1.158
  401NSC     F115515   5.443   7.402   1.231
  402NSC    NBT15516   6.551   7.432   2.651
  402NSC    SBT15517   6.712   7.438   2.660
  402NSC    SBT15518   6.447   7.546   2.700
  402NSC    OBT15519   6.448   7.570   2.845
  402NSC    CBT15520   6.286   7.460   2.668
  402NSC    OBT15521   6.444   7.665   2.613
  402NSC    OBT15522   6.764   7.455   2.798
  402NSC    OBT15523   6.773   7.326   2.584
  402NSC     F115524   6.281   7.347   2.740
  402NSC     F115525   6.186   7.539   2.706
  402NSC     F115526   6.275   7.432   2.538
  402NSC    CBT15527   6.758   7.591   2.566
  402NSC     F115528   6.886   7.582   2.532
  402NSC     F115529   6.683   7.601   2.457
  402NSC     F115530   6.742   7.697   2.646
  403NSC    NBT15531   2.270   2.995   3.939
  403NSC    SBT15532   2.168   2.937   4.050
  403NSC    SBT15533   2.249   3.128   3.849
  403NSC    OBT15534   2.136   3.120   3.755
  403NSC    CBT15535   2.400   3.118   3.741
  403NSC    OBT15536   2.264   3.255   3.923
  403NSC    OBT15537   2.034   2.905   3.997
  403NSC    OBT15538   2.232   2.829   4.129
  403NSC     F115539   2.398   3.004   3.672
  403NSC     F115540   2.400   3.220   3.656
  403NSC     F115541   2.510   3.124   3.817
  403NSC    CBT15542   2.145   3.077   4.170
  403NSC     F115543   2.099   3.028   4.284
  403NSC     F115544   2.262   3.137   4.192
  403NSC     F115545   2.056   3.163   4.121
  404NSC    NBT15546   2.166   4.719   6.251
  404NSC    SBT15547   2.077   4.849   6.217
  404NSC    SBT15548   2.209   4.667   6.399
  404NSC    OBT15549   2.298   4.759   6.471
  404NSC    CBT15550   2.318   4.524   6.352
  404NSC    OBT15551   2.099   4.606   6.475
  404NSC    OBT15552   2.133   4.975   6.267
  404NSC    OBT15553   2.038   4.849   6.074
  404NSC     F115554   2.420   4.568   6.277
  404NSC     F115555   2.367   4.468   6.463
  404NSC     F115556   2.248   4.434   6.284
  404NSC    CBT15557   1.918   4.821   6.309
  404NSC     F115558   1.824   4.898   6.256
  404NSC     F115559   1.882   4.694   6.299
  404NSC     F115560   1.935   4.856   6.437
  405NSC    NBT15561   4.431   1.369   3.093
  405NSC    SBT15562   4.363   1.312   3.228
  405NSC    SBT15563   4.472   1.283   2.961
  405NSC    OBT15564   4.578   1.184   2.985
  405NSC    CBT15565   4.555   1.416   2.861
  405NSC    OBT15566   4.358   1.240   2.879
  405NSC    OBT15567   4.441   1.207   3.295
  405NSC    OBT15568   4.318   1.423   3.314
  405NSC     F115569   4.659   1.465   2.929
  405NSC     F115570   4.599   1.363   2.747
  405NSC     F115571   4.468   1.513   2.834
  405NSC    CBT15572   4.206   1.231   3.169
  405NSC     F115573   4.123   1.220   3.272
  405NSC     F115574   4.149   1.306   3.075
  405NSC     F115575   4.235   1.110   3.122
  406NSC    NBT15576   3.814   3.585   1.004
  406NSC    SBT15577   3.701   3.675   0.930
  406NSC    SBT15578   3.792   3.439   1.071
  406NSC    OBT15579   3.702   3.439   1.188
  406NSC    CBT15580   3.961   3.411   1.144
  406NSC    OBT15581   3.775   3.330   0.974
  406NSC    OBT15582   3.586   3.708   1.016
  406NSC    OBT15583   3.764   3.789   0.861
  406NSC     F115584   3.988   3.509   1.231
  406NSC     F115585   3.963   3.294   1.208
  406NSC     F115586   4.052   3.410   1.046
  406NSC    CBT15587   3.637   3.565   0.795
  406NSC     F115588   3.577   3.641   0.704
  406NSC     F115589   3.737   3.500   0.738
  406NSC     F115590   3.547   3.481   0.846
  407NSC    NBT15591   0.519   6.328   7.398
  407NSC    SBT15592   0.434   6.192   7.377
  407NSC    SBT15593   0.565   6.393   7.540
  407NSC    OBT15594   0.453   6.438   7.624
  407NSC    CBT15595   0.643   6.550   7.479
  407NSC    OBT15596   0.673   6.320   7.607
  407NSC    OBT15597   0.302   6.193   7.443
  407NSC    OBT15598   0.433   6.152   7.235
  407NSC     F115599   0.552   6.622   7.412
  407NSC     F115600   0.686   6.620   7.584
  407NSC     F115601   0.746   6.521   7.400
  407NSC    CBT15602   0.535   6.061   7.463
  407NSC     F115603   0.499   5.943   7.416
  407NSC     F115604   0.664   6.081   7.437
  407NSC     F115605   0.511   6.066   7.594
  408NSC    NBT15606   5.487   4.746   2.140
  408NSC    SBT15607   5.545   4.596   2.130
  408NSC    SBT15608   5.352   4.803   2.068
  408NSC    OBT15609   5.359   4.804   1.921
  408NSC    CBT15610   5.363   4.982   2.117
  408NSC    OBT15611   5.227   4.755   2.129
  408NSC    OBT15612   5.574   4.552   1.993
  408NSC    OBT15613   5.654   4.576   2.228
  408NSC     F115614   5.477   5.034   2.069
  408NSC     F115615   5.260   5.048   2.064
  408NSC     F115616   5.360   4.993   2.249
  408NSC    CBT15617   5.406   4.489   2.191
  408NSC     F115618   5.456   4.371   2.227
  408NSC     F115619   5.348   4.546   2.296
  408NSC     F115620   5.319   4.470   2.092
  409NSC    NBT15621   0.659   3.301   4.463
  409NSC    SBT15622   0.667   3.365   4.611
  409NSC    SBT15623   0.526   3.252   4.385
  409NSC    OBT15624   0.459   3.137   4.448
  409NSC    CBT15625   0.602   3.182   4.231
  409NSC    OBT15626   0.440   3.362   4.338
  409NSC    OBT15627   0.613   3.277   4.717
  409NSC    OBT15628   0.801   3.420   4.638
  409NSC     F115629   0.686   3.083   4.264
  409NSC     F115630   0.506   3.132   4.153
  409NSC     F115631   0.667   3.278   4.166
  409NSC    CBT15632   0.555   3.513   4.603
  409NSC     F115633   0.586   3.595   4.703
  409NSC     F115634   0.572   3.576   4.487
  409NSC     F115635   0.429   3.473   4.618
  410NSC    NBT15636   0.974   6.823   2.930
  410NSC    SBT15637   1.135   6.834   2.914
  410NSC    SBT15638   0.880   6.700   2.881
  410NSC    OBT15639   0.878   6.682   2.735
  410NSC    CBT15640   0.713   6.769   2.922
  410NSC    OBT15641   0.893   6.579   2.963
  410NSC    OBT15642   1.182   6.826   2.775
  410NSC    OBT15643   1.187   6.948   2.993
  410NSC     F115644   0.694   6.883   2.854
  410NSC     F115645   0.620   6.681   2.885
  410NSC     F115646   0.705   6.791   3.053
  410NSC    CBT15647   1.200   6.683   3.001
  410NSC     F115648   1.328   6.703   3.031
  410NSC     F115649   1.131   6.662   3.112
  410NSC     F115650   1.191   6.578   2.918
  411NSC    NBT15651   1.676   2.420   0.730
  411NSC    SBT15652   1.703   2.261   0.723
  411NSC    SBT15653   1.554   2.501   0.660
  411NSC    OBT15654   1.556   2.498   0.513
  411NSC    CBT15655   1.601   2.675   0.704
  411NSC    OBT15656   1.423   2.480   0.725
  411NSC    OBT15657   1.720   2.209   0.586
  411NSC    OBT15658   1.808   2.222   0.818
  411NSC     F115659   1.722   2.703   0.652
  411NSC     F115660   1.512   2.759   0.651
  411NSC     F115661   1.603   2.689   0.836
  411NSC    CBT15662   1.547   2.185   0.789
  411NSC     F115663   1.574   2.061   0.828
  411NSC     F115664   1.504   2.255   0.894
  411NSC     F115665   1.455   2.182   0.693
  412NSC    NBT15666   4.236   2.168   1.143
  412NSC    SBT15667   4.364   2.267   1.149
  412NSC    SBT15668   4.238   2.007   1.125
  412NSC    OBT15669   4.290   1.962   0.995
  412NSC    CBT15670   4.056   1.972   1.116
  412NSC    OBT15671   4.284   1.934   1.244
  412NSC    OBT15672   4.449   2.261   1.029
  412NSC    OBT15673   4.323   2.402   1.191
  412NSC     F115674   4.003   2.039   1.012
  412NSC     F115675   4.037   1.842   1.097
  412NSC     F115676   3.997   2.010   1.229
  412NSC    CBT15677   4.466   2.201   1.290
  412NSC     F115678   4.548   2.297   1.330
  412NSC     F115679   4.386   2.166   1.390
  412NSC     F115680   4.537   2.097   1.246
  413NSC    NBT15681   0.886   2.645   5.949
  413NSC    SBT15682   1.044   2.655   5.984
  413NSC    SBT15683   0.812   2.526   5.869
  413NSC    OBT15684   0.854   2.513   5.728
  413NSC    CBT15685   0.640   2.595   5.859
  413NSC    OBT15686   0.798   2.401   5.946
  413NSC    OBT15687   1.132   2.652   5.866
  413NSC    OBT15688   1.069   2.765   6.079
  413NSC     F115689   0.642   2.712   5.794
  413NSC     F115690   0.562   2.510   5.792
  413NSC     F115691   0.592   2.612   5.982
  413NSC    CBT15692   1.079   2.500   6.080
  413NSC     F115693   1.191   2.517   6.149
  413NSC     F115694   0.979   2.475   6.164
  413NSC     F115695   1.096   2.399   5.994
  414NSC    NBT15696   6.963   7.262   3.676
  414NSC    SBT15697   6.908   7.110   3.682
  414NSC    SBT15698   6.888   7.390   3.610
  414NSC    OBT15699   6.869   7.380   3.465
  414NSC    CBT15700   7.020   7.519   3.632
  414NSC    OBT15701   6.774   7.439   3.689
  414NSC    OBT15702   6.878   7.052   3.550
  414NSC    OBT15703   6.992   7.027   3.770
  414NSC     F115704   7.131   7.481   3.566
  414NSC     F115705   6.977   7.634   3.580
  414NSC     F115706   7.046   7.535   3.761
  414NSC    CBT15707   6.745   7.124   3.771
  414NSC     F115708   6.712   7.005   3.818
  414NSC     F115709   6.756   7.210   3.871
  414NSC     F115710   6.652   7.164   3.684
  415NSC    NBT15711   5.113   0.865   1.648
  415NSC    SBT15712   5.013   0.993   1.647
  415NSC    SBT15713   5.070   0.709   1.637
  415NSC    OBT15714   4.991   0.661   1.752
  415NSC    CBT15715   5.236   0.628   1.657
  415NSC    OBT15716   5.024   0.668   1.503
  415NSC    OBT15717   4.914   0.991   1.756
  415NSC    OBT15718   5.090   1.118   1.633
  415NSC     F115719   5.288   0.663   1.776
  415NSC     F115720   5.221   0.496   1.654
  415NSC     F115721   5.317   0.666   1.559
  415NSC    CBT15722   4.918   0.977   1.488
  415NSC     F115723   4.867   1.095   1.458
  415NSC     F115724   5.000   0.938   1.391
  415NSC     F115725   4.819   0.889   1.506
  416NSC    NBT15726   1.966   2.770   1.306
  416NSC    SBT15727   1.810   2.811   1.315
  416NSC    SBT15728   2.073   2.766   1.428
  416NSC    OBT15729   2.101   2.899   1.487
  416NSC    CBT15730   2.228   2.724   1.334
  416NSC    OBT15731   2.054   2.654   1.522
  416NSC    OBT15732   1.787   2.947   1.367
  416NSC    OBT15733   1.740   2.778   1.189
  416NSC     F115734   2.252   2.819   1.243
  416NSC     F115735   2.330   2.719   1.419
  416NSC     F115736   2.213   2.606   1.275
  416NSC    CBT15737   1.739   2.694   1.441
  416NSC     F115738   1.608   2.689   1.426
  416NSC     F115739   1.790   2.572   1.423
  416NSC     F115740   1.768   2.739   1.563
  417NSC    NBT15741   1.124   1.615   3.717
  417NSC    SBT15742   0.963   1.632   3.706
  417NSC    SBT15743   1.236   1.729   3.687
  417NSC    OBT15744   1.240   1.772   3.546
  417NSC    CBT15745   1.390   1.629   3.710
  417NSC    OBT15746   1.243   1.834   3.790
  417NSC    OBT15747   0.917   1.671   3.571
  417NSC    OBT15748   0.895   1.515   3.765
  417NSC     F115749   1.391   1.527   3.623
  417NSC     F115750   1.496   1.706   3.686
  417NSC     F115751   1.396   1.583   3.834
  417NSC    CBT15752   0.923   1.773   3.819
  417NSC     F115753   0.795   1.768   3.850
  417NSC     F115754   0.996   1.764   3.930
  417NSC     F115755   0.948   1.888   3.756
  418NSC    NBT15756   1.693   7.363   2.912
  418NSC    SBT15757   1.749   7.280   3.039
  418NSC    SBT15758   1.537   7.388   2.874
  418NSC    OBT15759   1.464   7.265   2.838
  418NSC    CBT15760   1.557   7.478   2.712
  418NSC    OBT15761   1.468   7.484   2.962
  418NSC    OBT15762   1.704   7.140   3.043
  418NSC    OBT15763   1.895   7.301   3.054
  418NSC     F115764   1.624   7.400   2.626
  418NSC     F115765   1.437   7.505   2.662
  418NSC     F115766   1.624   7.591   2.732
  418NSC    CBT15767   1.673   7.364   3.186
  418NSC     F115768   1.744   7.333   3.294
  418NSC     F115769   1.675   7.496   3.168
  418NSC     F115770   1.548   7.320   3.202
  419NSC    NBT15771   5.912   3.550   1.705
  419NSC    SBT15772   5.794   3.644   1.765
  419NSC    SBT15773   5.994   3.435   1.784
  419NSC    OBT15774   6.078   3.486   1.893
  419NSC    CBT15775   6.116   3.386   1.652
  419NSC    OBT15776   5.916   3.313   1.810
  419NSC    OBT15777   5.836   3.724   1.881
  419NSC    OBT15778   5.727   3.719   1.657
  419NSC     F115779   6.189   3.493   1.618
  419NSC     F115780   6.197   3.292   1.700
  419NSC     F115781   6.050   3.339   1.546
  419NSC    CBT15782   5.667   3.523   1.827
  419NSC     F115783   5.551   3.587   1.839
  419NSC     F115784   5.654   3.423   1.740
  419NSC     F115785   5.704   3.478   1.947
  420NSC    NBT15786   2.597   4.090   3.101
  420NSC    SBT15787   2.752   4.067   3.141
  420NSC    SBT15788   2.539   4.204   3.002
  420NSC    OBT15789   2.557   4.342   3.052
  420NSC    CBT15790   2.357   4.172   3.019
  420NSC    OBT15791   2.568   4.181   2.859
  420NSC    OBT15792   2.816   4.184   3.205
  420NSC    OBT15793   2.768   3.939   3.213
  420NSC     F115794   2.321   4.188   3.147
  420NSC     F115795   2.290   4.261   2.945
  420NSC     F115796   2.329   4.049   2.978
  420NSC    CBT15797   2.839   4.042   2.979
  420NSC     F115798   2.954   3.981   3.001
  420NSC     F115799   2.763   3.966   2.899
  420NSC     F115800   2.862   4.161   2.923
  421NSC    NBT15801   4.325   0.517   3.421
  421NSC    SBT15802   4.178   0.449   3.422
  421NSC    SBT15803   4.463   0.448   3.472
  421NSC    OBT15804   4.466   0.420   3.616
  421NSC    CBT15805   4.580   0.591   3.451
  421NSC    OBT15806   4.515   0.344   3.382
  421NSC    OBT15807   4.132   0.407   3.556
  421NSC    OBT15808   4.082   0.532   3.346
  421NSC     F115809   4.538   0.694   3.526
  421NSC     F115810   4.701   0.555   3.491
  421NSC     F115811   4.584   0.627   3.323
  421NSC    CBT15812   4.197   0.294   3.322
  421NSC     F115813   4.077   0.255   3.281
  421NSC     F115814   4.274   0.319   3.216
  421NSC     F115815   4.251   0.199   3.399
  422NSC    NBT15816   5.838   1.415   3.573
  422NSC    SBT15817   5.791   1.569   3.561
  422NSC    SBT15818   5.987   1.357   3.548
  422NSC    OBT15819   6.035   1.371   3.409
  422NSC    CBT15820   5.956   1.175   3.567
  422NSC    OBT15821   6.083   1.390   3.655
  422NSC    OBT15822   5.814   1.629   3.428
  422NSC    OBT15823   5.654   1.586   3.615
  422NSC     F115824   5.866   1.135   3.477
  422NSC     F115825   6.069   1.109   3.547
  422NSC     F115826   5.911   1.150   3.690
  422NSC    CBT15827   5.901   1.660   3.680
  422NSC     F115828   5.844   1.776   3.710
  422NSC     F115829   5.916   1.588   3.791
  422NSC     F115830   6.018   1.683   3.621
  423NSC    NBT15831   5.491   2.686   7.616
  423NSC    SBT15832   5.428   2.686   7.467
  423NSC    SBT15833   5.500   2.559   7.718
  423NSC    OBT15834   5.369   2.509   7.762
  423NSC    CBT15835   5.571   2.643   7.868
  423NSC    OBT15836   5.601   2.459   7.680
  423NSC    OBT15837   5.286   2.645   7.462
  423NSC    OBT15838   5.460   2.812   7.397
  423NSC     F115839   5.488   2.740   7.908
  423NSC     F115840   5.583   2.554   7.966
  423NSC     F115841   5.690   2.694   7.838
  423NSC    CBT15842   5.524   2.555   7.377
  423NSC     F115843   5.511   2.575   7.247
  423NSC     F115844   5.652   2.562   7.410
  423NSC     F115845   5.473   2.435   7.407
  424NSC    NBT15846   2.634   7.158   0.697
  424NSC    SBT15847   2.759   7.205   0.788
  424NSC    SBT15848   2.636   7.127   0.537
  424NSC    OBT15849   2.666   7.245   0.454
  424NSC    CBT15850   2.456   7.094   0.508
  424NSC    OBT15851   2.704   7.001   0.502
  424NSC    OBT15852   2.822   7.331   0.743
  424NSC    OBT15853   2.724   7.199   0.931
  424NSC     F115854   2.385   7.203   0.542
  424NSC     F115855   2.437   7.069   0.379
  424NSC     F115856   2.417   6.989   0.580
  424NSC    CBT15857   2.886   7.071   0.764
  424NSC     F115858   2.972   7.076   0.865
  424NSC     F115859   2.825   6.952   0.764
  424NSC     F115860   2.950   7.092   0.650
  425NSC    NBT15861   3.970   6.958   2.239
  425NSC    SBT15862   3.840   6.993   2.148
  425NSC    SBT15863   3.984   6.835   2.343
  425NSC    OBT15864   3.893   6.843   2.459
  425NSC    CBT15865   4.152   6.872   2.414
  425NSC    OBT15866   3.999   6.703   2.279
  425NSC    OBT15867   3.717   7.017   2.226
  425NSC    OBT15868   3.873   7.097   2.048
  425NSC     F115869   4.150   6.994   2.472
  425NSC     F115870   4.181   6.781   2.507
  425NSC     F115871   4.243   6.869   2.318
  425NSC    CBT15872   3.811   6.838   2.049
  425NSC     F115873   3.737   6.869   1.943
  425NSC     F115874   3.927   6.789   2.008
  425NSC     F115875   3.745   6.750   2.124
  426NSC    NBT15876   7.534   5.377   6.017
  426NSC    SBT15877   7.673   5.396   6.098
  426NSC    SBT15878   7.483   5.465   5.891
  426NSC    OBT15879   7.457   5.606   5.923
  426NSC    CBT15880   7.315   5.391   5.866
  426NSC    OBT15881   7.555   5.437   5.765
  426NSC    OBT15882   7.690   5.529   6.158
  426NSC    OBT15883   7.695   5.282   6.190
  426NSC     F115884   7.242   5.408   5.977
  426NSC     F115885   7.254   5.454   5.765
  426NSC     F115886   7.326   5.262   5.837
  426NSC    CBT15887   7.805   5.378   5.968
  426NSC     F115888   7.919   5.349   6.028
  426NSC     F115889   7.772   5.280   5.885
  426NSC     F115890   7.817   5.494   5.904
  427NSC    NBT15891   4.444   4.143   7.575
  427NSC    SBT15892   4.429   4.030   7.690
  427NSC    SBT15893   4.464   4.303   7.599
  427NSC    OBT15894   4.348   4.369   7.662
  427NSC    CBT15895   4.460   4.362   7.423
  427NSC    OBT15896   4.598   4.341   7.648
  427NSC    OBT15897   4.315   4.052   7.781
  427NSC    OBT15898   4.438   3.895   7.631
  427NSC     F115899   4.342   4.328   7.367
  427NSC     F115900   4.472   4.495   7.421
  427NSC     F115901   4.560   4.307   7.355
  427NSC    CBT15902   4.583   4.048   7.793
  427NSC     F115903   4.601   3.936   7.861
  427NSC     F115904   4.688   4.070   7.714
  427NSC     F115905   4.566   4.149   7.879
  428NSC    NBT15906   7.207   7.494   6.930
  428NSC    SBT15907   7.136   7.496   7.075
  428NSC    SBT15908   7.288   7.370   6.863
  428NSC    OBT15909   7.411   7.333   6.936
  428NSC    CBT15910   7.348   7.450   6.707
  428NSC    OBT15911   7.202   7.260   6.818
  428NSC    OBT15912   7.227   7.469   7.187
  428NSC    OBT15913   7.052   7.617   7.090
  428NSC     F115914   7.425   7.556   6.739
  428NSC     F115915   7.421   7.363   6.639
  428NSC     F115916   7.245   7.490   6.634
  428NSC    CBT15917   7.015   7.355   7.069
  428NSC     F115918   6.924   7.374   7.163
  428NSC     F115919   6.956   7.351   6.950
  428NSC     F115920   7.081   7.242   7.094
  429NSC    NBT15921   0.982   3.462   3.673
  429NSC    SBT15922   1.050   3.592   3.603
  429NSC    SBT15923   0.935   3.449   3.827
  429NSC    OBT15924   1.045   3.456   3.924
  429NSC    CBT15925   0.882   3.271   3.830
  429NSC    OBT15926   0.813   3.525   3.859
  429NSC    OBT15927   1.175   3.635   3.667
  429NSC    OBT15928   1.056   3.575   3.456
  429NSC     F115929   0.986   3.193   3.797
  429NSC     F115930   0.841   3.239   3.952
  429NSC     F115931   0.782   3.253   3.743
  429NSC    CBT15932   0.927   3.728   3.630
  429NSC     F115933   0.951   3.825   3.543
  429NSC     F115934   0.804   3.682   3.612
  429NSC     F115935   0.942   3.776   3.754
  430NSC    NBT15936   2.477   3.661   0.333
  430NSC    SBT15937   2.619   3.660   0.257
  430NSC    SBT15938   2.436   3.573   0.463
  430NSC    OBT15939   2.432   3.427   0.437
  430NSC    CBT15940   2.257   3.621   0.480
  430NSC    OBT15941   2.499   3.617   0.588
  430NSC    OBT15942   2.658   3.528   0.204
  430NSC    OBT15943   2.627   3.772   0.160
  430NSC     F115944   2.192   3.588   0.368
  430NSC     F115945   2.204   3.554   0.582
  430NSC     F115946   2.248   3.752   0.502
  430NSC    CBT15947   2.743   3.703   0.389
  430NSC     F115948   2.854   3.746   0.331
  430NSC     F115949   2.694   3.799   0.467
  430NSC     F115950   2.771   3.594   0.460
  431NSC    NBT15951   2.951   5.558   1.224
  431NSC    SBT15952   2.846   5.502   1.334
  431NSC    SBT15953   3.081   5.480   1.165
  431NSC    OBT15954   3.185   5.454   1.266
  431NSC    CBT15955   3.153   5.613   1.058
  431NSC    OBT15956   3.048   5.370   1.073
  431NSC    OBT15957   2.908   5.466   1.462
  431NSC    OBT15958   2.728   5.590   1.343
  431NSC     F115959   3.182   5.720   1.133
  431NSC     F115960   3.265   5.568   1.002
  431NSC     F115961   3.066   5.646   0.963
  431NSC    CBT15962   2.782   5.344   1.260
  431NSC     F115963   2.667   5.313   1.319
  431NSC     F115964   2.761   5.360   1.129
  431NSC     F115965   2.870   5.246   1.282
  432NSC    NBT15966   7.167   5.212   2.958
  432NSC    SBT15967   7.204   5.319   3.074
  432NSC    SBT15968   7.077   5.078   2.974
  432NSC    OBT15969   7.136   4.976   3.063
  432NSC    CBT15970   7.094   5.006   2.804
  432NSC    OBT15971   6.933   5.104   2.990
  432NSC    OBT15972   7.275   5.260   3.189
  432NSC    OBT15973   7.266   5.439   3.016
  432NSC     F115974   7.223   4.983   2.779
  432NSC     F115975   7.027   4.891   2.798
  432NSC     F115976   7.044   5.091   2.715
  432NSC    CBT15977   7.038   5.376   3.138
  432NSC     F115978   7.055   5.491   3.201
  432NSC     F115979   6.955   5.393   3.036
  432NSC     F115980   6.991   5.286   3.224
  433NSC    NBT15981   2.352   5.748   7.555
  433NSC    SBT15982   2.330   5.907   7.569
  433NSC    SBT15983   2.490   5.672   7.518
  433NSC    OBT15984   2.540   5.701   7.382
  433NSC    CBT15985   2.430   5.497   7.508
  433NSC    OBT15986   2.590   5.671   7.626
  433NSC    OBT15987   2.363   5.984   7.448
  433NSC    OBT15988   2.198   5.937   7.628
  433NSC     F115989   2.335   5.488   7.414
  433NSC     F115990   2.531   5.417   7.475
  433NSC     F115991   2.381   5.460   7.626
  433NSC    CBT15992   2.453   5.959   7.699
  433NSC     F115993   2.415   6.076   7.749
  433NSC     F115994   2.456   5.869   7.796
  433NSC     F115995   2.573   5.972   7.642
  434NSC    NBT15996   1.960   1.374   6.428
  434NSC    SBT15997   2.110   1.314   6.434
  434NSC    SBT15998   1.917   1.523   6.380
  434NSC    OBT15999   1.967   1.631   6.467
  434NSC    CBT16000   1.734   1.517   6.414
  434NSC    OBT16001   1.928   1.545   6.235
  434NSC    OBT16002   2.201   1.391   6.521
  434NSC    OBT16003   2.106   1.168   6.459
  434NSC     F116004   1.714   1.493   6.544
  434NSC     F116005   1.681   1.635   6.383
  434NSC     F116006   1.679   1.421   6.341
  434NSC    CBT16007   2.174   1.332   6.261
  434NSC     F116008   2.276   1.249   6.245
  434NSC     F116009   2.078   1.301   6.174
  434NSC     F116010   2.216   1.457   6.243
  435NSC    NBT16011   5.354   4.508   0.304
  435NSC    SBT16012   5.391   4.665   0.315
  435NSC    SBT16013   5.216   4.437   0.350
  435NSC    OBT16014   5.192   4.442   0.495
  435NSC    CBT16015   5.257   4.259   0.316
  435NSC    OBT16016   5.101   4.466   0.262
  435NSC    OBT16017   5.386   4.717   0.453
  435NSC    OBT16018   5.515   4.694   0.240
  435NSC     F116019   5.364   4.224   0.389
  435NSC     F116020   5.154   4.183   0.352
  435NSC     F116021   5.283   4.243   0.187
  435NSC    CBT16022   5.256   4.751   0.221
  435NSC     F116023   5.299   4.872   0.188
  435NSC     F116024   5.228   4.682   0.110
  435NSC     F116025   5.149   4.761   0.299
  436NSC    NBT16026   5.222   2.035   3.355
  436NSC    SBT16027   5.299   2.159   3.287
  436NSC    SBT16028   5.231   1.879   3.310
  436NSC    OBT16029   5.177   1.852   3.175
  436NSC    CBT16030   5.106   1.804   3.425
  436NSC    OBT16031   5.358   1.814   3.345
  436NSC    OBT16032   5.269   2.178   3.144
  436NSC    OBT16033   5.285   2.281   3.371
  436NSC     F116034   4.986   1.861   3.404
  436NSC     F116035   5.097   1.674   3.401
  436NSC     F116036   5.144   1.824   3.551
  436NSC    CBT16037   5.479   2.114   3.298
  436NSC     F116038   5.551   2.224   3.286
  436NSC     F116039   5.503   2.058   3.416
  436NSC     F116040   5.508   2.030   3.199
  437NSC    NBT16041   2.330   1.789   5.714
  437NSC    SBT16042   2.322   1.636   5.661
  437NSC    SBT16043   2.413   1.842   5.843
  437NSC    OBT16044   2.363   1.789   5.972
  437NSC    CBT16045   2.361   2.020   5.843
  437NSC    OBT16046   2.558   1.845   5.824
  437NSC    OBT16047   2.269   1.541   5.760
  437NSC    OBT16048   2.259   1.631   5.527
  437NSC     F116049   2.227   2.028   5.856
  437NSC     F116050   2.417   2.082   5.947
  437NSC     F116051   2.399   2.078   5.730
  437NSC    CBT16052   2.499   1.588   5.632
  437NSC     F116053   2.502   1.484   5.550
  437NSC     F116054   2.565   1.690   5.576
  437NSC     F116055   2.555   1.554   5.748
  438NSC    NBT16056   7.369   4.224   3.503
  438NSC    SBT16057   7.492   4.305   3.570
  438NSC    SBT16058   7.306   4.247   3.356
  438NSC    OBT16059   7.240   4.379   3.340
  438NSC    CBT16060   7.164   4.127   3.362
  438NSC    OBT16061   7.391   4.201   3.245
  438NSC    OBT16062   7.469   4.450   3.581
  438NSC    OBT16063   7.538   4.239   3.694
  438NSC     F116064   7.083   4.159   3.463
  438NSC     F116065   7.096   4.134   3.248
  438NSC     F116066   7.212   4.003   3.378
  438NSC    CBT16067   7.632   4.283   3.449
  438NSC     F116068   7.746   4.308   3.512
  438NSC     F116069   7.633   4.158   3.404
  438NSC     F116070   7.618   4.370   3.349
  439NSC    NBT16071   7.014   6.928   7.013
  439NSC    SBT16072   7.172   6.921   7.046
  439NSC    SBT16073   6.923   6.811   6.948
  439NSC    OBT16074   6.959   6.777   6.809
  439NSC    CBT16075   6.761   6.901   6.932
  439NSC    OBT16076   6.895   6.699   7.039
  439NSC    OBT16077   7.256   6.893   6.928
  439NSC    OBT16078   7.214   7.037   7.127
  439NSC     F116079   6.777   7.008   6.854
  439NSC     F116080   6.671   6.820   6.876
  439NSC     F116081   6.718   6.938   7.053
  439NSC    CBT16082   7.189   6.774   7.158
  439NSC     F116083   7.304   6.785   7.224
  439NSC     F116084   7.089   6.773   7.246
  439NSC     F116085   7.191   6.663   7.085
  440NSC    NBT16086   4.412   3.855   6.068
  440NSC    SBT16087   4.362   3.764   6.192
  440NSC    SBT16088   4.453   4.012   6.073
  440NSC    OBT16089   4.341   4.102   6.107
  440NSC    CBT16090   4.485   4.043   5.893
  440NSC    OBT16091   4.582   4.038   6.139
  440NSC    OBT16092   4.240   3.815   6.258
  440NSC    OBT16093   4.358   3.621   6.154
  440NSC     F116094   4.373   4.017   5.823
  440NSC     F116095   4.518   4.171   5.876
  440NSC     F116096   4.584   3.965   5.851
  440NSC    CBT16097   4.499   3.777   6.317
  440NSC     F116098   4.489   3.675   6.402
  440NSC     F116099   4.617   3.771   6.255
  440NSC     F116100   4.486   3.891   6.384
  441NSC    NBT16101   0.741   4.548   5.222
  441NSC    SBT16102   0.773   4.560   5.380
  441NSC    SBT16103   0.600   4.582   5.148
  441NSC    OBT16104   0.490   4.492   5.187
  441NSC    CBT16105   0.641   4.531   4.974
  441NSC    OBT16106   0.570   4.725   5.139
  441NSC    OBT16107   0.685   4.477   5.465
  441NSC    OBT16108   0.918   4.545   5.405
  441NSC     F116109   0.674   4.401   4.973
  441NSC     F116110   0.534   4.548   4.897
  441NSC     F116111   0.742   4.605   4.929
  441NSC    CBT16112   0.735   4.737   5.421
  441NSC     F116113   0.797   4.768   5.534
  441NSC     F116114   0.779   4.816   5.323
  441NSC     F116115   0.603   4.750   5.438
  442NSC    NBT16116   5.248   0.929   0.859
  442NSC    SBT16117   5.353   0.908   0.981
  442NSC    SBT16118   5.131   1.040   0.851
  442NSC    OBT16119   5.026   1.023   0.953
  442NSC    CBT16120   5.050   0.991   0.692
  442NSC    OBT16121   5.179   1.177   0.828
  442NSC    OBT16122   5.290   0.880   1.111
  442NSC    OBT16123   5.460   0.814   0.941
  442NSC     F116124   5.006   0.865   0.702
  442NSC     F116125   4.946   1.071   0.669
  442NSC     F116126   5.137   1.001   0.592
  442NSC    CBT16127   5.438   1.072   0.997
  442NSC     F116128   5.553   1.054   1.062
  442NSC     F116129   5.463   1.122   0.877
  442NSC     F116130   5.360   1.154   1.068
  443NSC    NBT16131   5.028   5.817   4.006
  443NSC    SBT16132   5.083   5.965   4.041
  443NSC    SBT16133   4.873   5.769   4.001
  443NSC    OBT16134   4.805   5.775   4.132
  443NSC    CBT16135   4.896   5.588   3.968
  443NSC    OBT16136   4.799   5.820   3.885
  443NSC    OBT16137   5.042   6.014   4.174
  443NSC    OBT16138   5.227   5.975   4.011
  443NSC     F116139   4.967   5.533   4.068
  443NSC     F116140   4.776   5.529   3.964
  443NSC     F116141   4.958   5.571   3.852
  443NSC    CBT16142   5.000   6.075   3.916
  443NSC     F116143   5.069   6.188   3.908
  443NSC     F116144   4.999   6.015   3.797
  443NSC     F116145   4.876   6.102   3.958
  444NSC    NBT16146   0.358   7.341   6.791
  444NSC    SBT16147   0.444   7.451   6.710
  444NSC    SBT16148   0.387   7.182   6.798
  444NSC    OBT16149   0.371   7.113   6.669
  444NSC    CBT16150   0.240   7.127   6.898
  444NSC    OBT16151   0.504   7.145   6.880
  444NSC    OBT16152   0.451   7.426   6.565
  444NSC    OBT16153   0.402   7.588   6.747
  444NSC     F116154   0.127   7.160   6.833
  444NSC     F116155   0.244   6.994   6.912
  444NSC     F116156   0.243   7.184   7.018
  444NSC    CBT16157   0.616   7.434   6.776
  444NSC     F116158   0.684   7.544   6.748
  444NSC     F116159   0.612   7.416   6.908
  444NSC     F116160   0.675   7.331   6.716
  445NSC    NBT16161   7.648   6.542   3.536
  445NSC    SBT16162   7.756   6.659   3.564
  445NSC    SBT16163   7.489   6.561   3.513
  445NSC    OBT16164   7.417   6.612   3.632
  445NSC    CBT16165   7.436   6.383   3.500
  445NSC    OBT16166   7.453   6.620   3.383
  445NSC    OBT16167   7.728   6.739   3.685
  445NSC    OBT16168   7.894   6.606   3.555
  445NSC     F116169   7.469   6.319   3.614
  445NSC     F116170   7.304   6.378   3.484
  445NSC     F116171   7.497   6.326   3.397
  445NSC    CBT16172   7.739   6.775   3.420
  445NSC     F116173   7.848   6.848   3.411
  445NSC     F116174   7.723   6.704   3.308
  445NSC     F116175   7.634   6.854   3.440
  446NSC    NBT16176   4.975   3.132   6.417
  446NSC    SBT16177   4.827   3.194   6.406
  446NSC    SBT16178   5.017   2.991   6.486
  446NSC    OBT16179   4.994   2.987   6.632
  446NSC    CBT16180   5.201   2.999   6.469
  446NSC    OBT16181   4.976   2.872   6.409
  446NSC    OBT16182   4.761   3.216   6.536
  446NSC    OBT16183   4.826   3.310   6.314
  446NSC     F116184   5.247   3.108   6.532
  446NSC     F116185   5.255   2.890   6.524
  446NSC     F116186   5.234   3.004   6.340
  446NSC    CBT16187   4.728   3.063   6.318
  446NSC     F116188   4.619   3.120   6.267
  446NSC     F116189   4.801   3.010   6.220
  446NSC     F116190   4.691   2.970   6.406
  447NSC    NBT16191   1.848   7.141   2.705
  447NSC    SBT16192   1.942   7.272   2.716
  447NSC    SBT16193   1.875   7.010   2.614
  447NSC    OBT16194   1.873   7.036   2.469
  447NSC    CBT16195   1.719   6.915   2.646
  447NSC    OBT16196   1.983   6.923   2.664
  447NSC    OBT16197   1.964   7.341   2.588
  447NSC    OBT16198   1.897   7.359   2.828
  447NSC     F116199   1.613   6.988   2.607
  447NSC     F116200   1.721   6.802   2.575
  447NSC     F116201   1.709   6.886   2.775
  447NSC    CBT16202   2.107   7.206   2.771
  447NSC     F116203   2.177   7.305   2.824
  447NSC     F116204   2.089   7.111   2.862
  447NSC     F116205   2.171   7.158   2.665
  448NSC    NBT16206   3.117   7.466   0.356
  448NSC    SBT16207   3.269   7.474   0.303
  448NSC    SBT16208   3.023   7.590   0.401
  448NSC    OBT16209   3.071   7.661   0.521
  448NSC    CBT16210   2.872   7.498   0.458
  448NSC    OBT16211   2.975   7.673   0.289
  448NSC    OBT16212   3.362   7.536   0.399
  448NSC    OBT16213   3.313   7.344   0.249
  448NSC     F116214   2.906   7.415   0.559
  448NSC     F116215   2.782   7.585   0.503
  448NSC     F116216   2.821   7.428   0.357
  448NSC    CBT16217   3.261   7.587   0.156
  448NSC     F116218   3.369   7.567   0.082
  448NSC     F116219   3.153   7.560   0.085
  448NSC     F116220   3.260   7.714   0.199
  449NSC    NBT16221   0.388   1.028   4.027
  449NSC    SBT16222   0.303   0.976   3.899
  449NSC    SBT16223   0.351   1.007   4.183
  449NSC    OBT16224   0.228   1.077   4.225
  449NSC    CBT16225   0.488   1.105   4.263
  449NSC    OBT16226   0.370   0.870   4.232
  449NSC    OBT16227   0.166   1.028   3.894
  449NSC    OBT16228   0.382   0.991   3.775
  449NSC     F116229   0.482   1.232   4.220
  449NSC     F116230   0.472   1.103   4.395
  449NSC     F116231   0.605   1.051   4.231
  449NSC    CBT16232   0.290   0.792   3.925
  449NSC     F116233   0.261   0.736   3.809
  449NSC     F116234   0.406   0.745   3.970
  449NSC     F116235   0.192   0.768   4.011
  450NSC    NBT16236   2.259   0.444   1.958
  450NSC    SBT16237   2.279   0.577   2.049
  450NSC    SBT16238   2.119   0.383   1.904
  450NSC    OBT16239   2.030   0.335   2.011
  450NSC    CBT16240   2.180   0.229   1.821
  450NSC    OBT16241   2.057   0.462   1.796
  450NSC    OBT16242   2.208   0.571   2.178
  450NSC    OBT16243   2.422   0.614   2.056
  450NSC     F116244   2.243   0.152   1.912
  450NSC     F116245   2.076   0.162   1.773
  450NSC     F116246   2.263   0.261   1.723
  450NSC    CBT16247   2.199   0.712   1.950
  450NSC     F116248   2.246   0.829   1.993
  450NSC     F116249   2.229   0.698   1.821
  450NSC     F116250   2.067   0.708   1.970
  451NSC    NBT16251   3.699   4.422   4.225
  451NSC    SBT16252   3.554   4.493   4.215
  451NSC    SBT16253   3.837   4.492   4.274
  451NSC    OBT16254   3.885   4.599   4.185
  451NSC    CBT16255   3.956   4.352   4.244
  451NSC    OBT16256   3.844   4.516   4.418
  451NSC    OBT16257   3.550   4.610   4.126
  451NSC    OBT16258   3.448   4.392   4.191
  451NSC     F116259   3.953   4.319   4.114
  451NSC     F116260   4.079   4.391   4.276
  451NSC     F116261   3.922   4.247   4.318
  451NSC    CBT16262   3.522   4.556   4.387
  451NSC     F116263   3.391   4.576   4.401
  451NSC     F116264   3.562   4.465   4.476
  451NSC     F116265   3.586   4.671   4.404
  452NSC    NBT16266   2.399   2.607   6.915
  452NSC    SBT16267   2.372   2.447   6.909
  452NSC    SBT16268   2.433   2.703   6.789
  452NSC    OBT16269   2.561   2.674   6.723
  452NSC    CBT16270   2.462   2.864   6.878
  452NSC    OBT16271   2.317   2.730   6.701
  452NSC    OBT16272   2.484   2.369   6.853
  452NSC    OBT16273   2.321   2.399   7.039
  452NSC     F116274   2.564   2.848   6.964
  452NSC     F116275   2.495   2.957   6.789
  452NSC     F116276   2.352   2.900   6.943
  452NSC    CBT16277   2.229   2.429   6.792
  452NSC     F116278   2.173   2.311   6.812
  452NSC     F116279   2.141   2.525   6.813
  452NSC     F116280   2.276   2.433   6.667
  453NSC    NBT16281   0.506   7.373   6.084
  453NSC    SBT16282   0.452   7.524   6.061
  453NSC    SBT16283   0.451   7.239   6.013
  453NSC    OBT16284   0.312   7.205   6.048
  453NSC    CBT16285   0.553   7.111   6.101
  453NSC    OBT16286   0.488   7.226   5.871
  453NSC    OBT16287   0.309   7.541   6.092
  453NSC    OBT16288   0.542   7.622   6.125
  453NSC     F116289   0.529   7.117   6.232
  453NSC     F116290   0.519   6.990   6.056
  453NSC     F116291   0.682   7.133   6.077
  453NSC    CBT16292   0.470   7.552   5.879
  453NSC     F116293   0.470   7.683   5.856
  453NSC     F116294   0.585   7.500   5.837
  453NSC     F116295   0.367   7.496   5.816
  454NSC    NBT16296   5.923   1.176   6.337
  454NSC    SBT16297   5.989   1.289   6.241
  454NSC    SBT16298   5.766   1.161   6.376
  454NSC    OBT16299   5.714   1.274   6.456
  454NSC    CBT16300   5.775   1.020   6.496
  454NSC    OBT16301   5.681   1.112   6.266
  454NSC    OBT16302   5.966   1.427   6.288
  454NSC    OBT16303   6.129   1.254   6.210
  454NSC     F116304   5.855   1.054   6.598
  454NSC     F116305   5.653   0.995   6.543
  454NSC     F116306   5.823   0.912   6.434
  454NSC    CBT16307   5.898   1.271   6.080
  454NSC     F116308   5.971   1.327   5.985
  454NSC     F116309   5.880   1.143   6.053
  454NSC     F116310   5.781   1.335   6.090
  455NSC    NBT16311   3.221   0.252   0.299
  455NSC    SBT16312   3.383   0.258   0.305
  455NSC    SBT16313   3.131   0.130   0.240
  455NSC    OBT16314   3.147   0.109   0.096
  455NSC    CBT16315   2.962   0.204   0.258
  455NSC    OBT16316   3.129   0.010   0.326
  455NSC    OBT16317   3.448   0.246   0.173
  455NSC    OBT16318   3.427   0.372   0.387
  455NSC     F116319   2.955   0.317   0.186
  455NSC     F116320   2.872   0.118   0.211
  455NSC     F116321   2.937   0.230   0.386
  455NSC    CBT16322   3.431   0.107   0.402
  455NSC     F116323   3.554   0.125   0.448
  455NSC     F116324   3.348   0.090   0.504
  455NSC     F116325   3.430   0.001   0.321
  456NSC    NBT16326   4.822   3.656   1.724
  456NSC    SBT16327   4.756   3.519   1.668
  456NSC    SBT16328   4.819   3.802   1.653
  456NSC    OBT16329   4.893   3.807   1.525
  456NSC    CBT16330   4.925   3.898   1.771
  456NSC    OBT16331   4.688   3.868   1.657
  456NSC    OBT16332   4.807   3.478   1.536
  456NSC    OBT16333   4.758   3.414   1.772
  456NSC     F116334   5.047   3.842   1.777
  456NSC     F116335   4.937   4.023   1.726
  456NSC     F116336   4.869   3.899   1.891
  456NSC    CBT16337   4.576   3.561   1.645
  456NSC     F116338   4.507   3.448   1.641
  456NSC     F116339   4.534   3.635   1.747
  456NSC     F116340   4.562   3.626   1.530
  457NSC    NBT16341   4.478   4.641   3.252
  457NSC    SBT16342   4.491   4.741   3.124
  457NSC    SBT16343   4.600   4.570   3.332
  457NSC    OBT16344   4.676   4.473   3.251
  457NSC    CBT16345   4.503   4.466   3.451
  457NSC    OBT16346   4.678   4.662   3.416
  457NSC    OBT16347   4.559   4.680   3.009
  457NSC    OBT16348   4.361   4.804   3.095
  457NSC     F116349   4.425   4.381   3.383
  457NSC     F116350   4.588   4.396   3.526
  457NSC     F116351   4.429   4.544   3.529
  457NSC    CBT16352   4.600   4.879   3.184
  457NSC     F116353   4.582   4.984   3.105
  457NSC     F116354   4.566   4.911   3.309
  457NSC     F116355   4.727   4.840   3.177
  458NSC    NBT16356   4.838   6.553   3.741
  458NSC    SBT16357   4.743   6.571   3.611
  458NSC    SBT16358   4.958   6.446   3.759
  458NSC    OBT16359   4.913   6.305   3.761
  458NSC    CBT16360   5.007   6.481   3.935
  458NSC    OBT16361   5.079   6.476   3.680
  458NSC    OBT16362   4.667   6.449   3.576
  458NSC    OBT16363   4.663   6.694   3.622
  458NSC     F116364   4.902   6.460   4.015
  458NSC     F116365   5.105   6.398   3.970
  458NSC     F116366   5.049   6.607   3.945
  458NSC    CBT16367   4.861   6.602   3.471
  458NSC     F116368   4.795   6.659   3.372
  458NSC     F116369   4.958   6.684   3.512
  458NSC     F116370   4.911   6.486   3.430
  459NSC    NBT16371   1.709   7.333   2.018
  459NSC    SBT16372   1.833   7.358   1.916
  459NSC    SBT16373   1.641   7.191   2.054
  459NSC    OBT16374   1.573   7.126   1.941
  459NSC    CBT16375   1.502   7.248   2.164
  459NSC    OBT16376   1.724   7.104   2.140
  459NSC    OBT16377   1.807   7.311   1.778
  459NSC    OBT16378   1.882   7.496   1.928
  459NSC     F116379   1.423   7.332   2.095
  459NSC     F116380   1.431   7.143   2.203
  459NSC     F116381   1.553   7.310   2.271
  459NSC    CBT16382   1.969   7.251   1.983
  459NSC     F116383   2.085   7.295   1.934
  459NSC     F116384   1.971   7.259   2.115
  459NSC     F116385   1.950   7.126   1.942
  460NSC    NBT16386   3.619   3.821   0.553
  460NSC    SBT16387   3.458   3.820   0.538
  460NSC    SBT16388   3.716   3.951   0.543
  460NSC    OBT16389   3.718   4.013   0.409
  460NSC    CBT16390   3.881   3.869   0.558
  460NSC    OBT16391   3.708   4.042   0.658
  460NSC    OBT16392   3.409   3.871   0.408
  460NSC    OBT16393   3.403   3.688   0.579
  460NSC     F116394   3.896   3.780   0.458
  460NSC     F116395   3.977   3.961   0.548
  460NSC     F116396   3.890   3.807   0.675
  460NSC    CBT16397   3.398   3.939   0.668
  460NSC     F116398   3.270   3.913   0.693
  460NSC     F116399   3.469   3.923   0.779
  460NSC     F116400   3.409   4.063   0.621
  461NSC    NBT16401   2.314   1.946   1.143
  461NSC    SBT16402   2.240   1.981   1.282
  461NSC    SBT16403   2.439   2.026   1.076
  461NSC    OBT16404   2.406   2.163   1.035
  461NSC    CBT16405   2.455   1.932   0.916
  461NSC    OBT16406   2.567   2.005   1.145
  461NSC    OBT16407   2.182   2.116   1.286
  461NSC    OBT16408   2.149   1.872   1.322
  461NSC     F116409   2.340   1.942   0.847
  461NSC     F116410   2.553   1.987   0.844
  461NSC     F116411   2.483   1.805   0.941
  461NSC    CBT16412   2.376   1.978   1.409
  461NSC     F116413   2.322   1.963   1.529
  461NSC     F116414   2.458   1.876   1.384
  461NSC     F116415   2.442   2.094   1.404
  462NSC    NBT16416   7.178   1.370   6.262
  462NSC    SBT16417   7.213   1.212   6.273
  462NSC    SBT16418   7.071   1.439   6.162
  462NSC    OBT16419   7.106   1.427   6.019
  462NSC    CBT16420   7.100   1.618   6.202
  462NSC    OBT16421   6.930   1.414   6.199
  462NSC    OBT16422   7.262   1.153   6.147
  462NSC    OBT16423   7.297   1.185   6.391
  462NSC     F116424   7.227   1.649   6.176
  462NSC     F116425   7.020   1.693   6.125
  462NSC     F116426   7.072   1.640   6.330
  462NSC    CBT16427   7.050   1.131   6.310
  462NSC     F116428   7.073   1.011   6.362
  462NSC     F116429   6.982   1.205   6.397
  462NSC     F116430   6.982   1.117   6.196
  463NSC    NBT16431   0.529   1.755   6.676
  463NSC    SBT16432   0.383   1.764   6.608
  463NSC    SBT16433   0.562   1.719   6.831
  463NSC    OBT16434   0.513   1.820   6.927
  463NSC    CBT16435   0.747   1.741   6.831
  463NSC    OBT16436   0.541   1.578   6.865
  463NSC    OBT16437   0.294   1.864   6.671
  463NSC    OBT16438   0.395   1.774   6.461
  463NSC     F116439   0.776   1.867   6.796
  463NSC     F116440   0.793   1.718   6.954
  463NSC     F116441   0.802   1.655   6.745
  463NSC    CBT16442   0.307   1.598   6.639
  463NSC     F116443   0.207   1.580   6.553
  463NSC     F116444   0.398   1.503   6.621
  463NSC     F116445   0.258   1.595   6.763
  464NSC    NBT16446   1.457   4.189   2.655
  464NSC    SBT16447   1.298   4.178   2.629
  464NSC    SBT16448   1.536   4.157   2.793
  464NSC    OBT16449   1.502   4.249   2.903
  464NSC    CBT16450   1.708   4.205   2.745
  464NSC    OBT16451   1.544   4.014   2.826
  464NSC    OBT16452   1.217   4.263   2.718
  464NSC    OBT16453   1.268   4.190   2.485
  464NSC     F116454   1.710   4.334   2.708
  464NSC     F116455   1.789   4.189   2.849
  464NSC     F116456   1.750   4.129   2.644
  464NSC    CBT16457   1.257   4.002   2.672
  464NSC     F116458   1.141   3.970   2.616
  464NSC     F116459   1.352   3.921   2.627
  464NSC     F116460   1.245   3.991   2.805
  465NSC    NBT16461   5.379   1.163   5.383
  465NSC    SBT16462   5.218   1.174   5.370
  465NSC    SBT16463   5.462   1.043   5.453
  465NSC    OBT16464   5.440   1.032   5.598
  465NSC    CBT16465   5.635   1.110   5.437
  465NSC    OBT16466   5.464   0.918   5.376
  465NSC    OBT16467   5.147   1.173   5.500
  465NSC    OBT16468   5.180   1.284   5.279
  465NSC     F116469   5.642   1.228   5.502
  465NSC     F116470   5.720   1.025   5.494
  465NSC     F116471   5.665   1.126   5.309
  465NSC    CBT16472   5.168   1.018   5.282
  465NSC     F116473   5.047   1.036   5.229
  465NSC     F116474   5.255   0.992   5.185
  465NSC     F116475   5.162   0.918   5.370
  466NSC    NBT16476   6.923   5.001   3.372
  466NSC    SBT16477   7.027   5.115   3.419
  466NSC    SBT16478   6.958   4.847   3.335
  466NSC    OBT16479   7.043   4.833   3.215
  466NSC    CBT16480   6.791   4.788   3.280
  466NSC    OBT16481   6.992   4.763   3.451
  466NSC    OBT16482   7.134   5.142   3.322
  466NSC    OBT16483   6.955   5.235   3.468
  466NSC     F116484   6.749   4.862   3.176
  466NSC     F116485   6.800   4.661   3.241
  466NSC     F116486   6.705   4.798   3.381
  466NSC    CBT16487   7.109   5.044   3.570
  466NSC     F116488   7.163   5.143   3.640
  466NSC     F116489   7.019   4.981   3.645
  466NSC     F116490   7.205   4.960   3.531
  467NSC    NBT16491   1.820   0.871   7.844
  467NSC    SBT16492   1.923   0.988   7.798
  467NSC    SBT16493   1.690   0.819   7.763
  467NSC    OBT16494   1.584   0.920   7.749
  467NSC    CBT16495   1.622   0.697   7.885
  467NSC    OBT16496   1.722   0.739   7.643
  467NSC    OBT16497   1.858   1.119   7.777
  467NSC    OBT16498   2.042   0.989   7.886
  467NSC     F116499   1.594   0.760   8.000
  467NSC     F116500   1.510   0.644   7.836
  467NSC     F116501   1.711   0.600   7.906
  467NSC    CBT16502   1.985   0.932   7.632
  467NSC     F116503   2.098   0.996   7.606
  467NSC     F116504   2.008   0.801   7.635
  467NSC     F116505   1.895   0.963   7.539
  468NSC    NBT16506   4.784   3.591   2.333
  468NSC    SBT16507   4.697   3.458   2.302
  468NSC    SBT16508   4.939   3.597   2.379
  468NSC    OBT16509   4.963   3.539   2.513
  468NSC    CBT16510   4.959   3.780   2.404
  468NSC    OBT16511   5.035   3.562   2.273
  468NSC    OBT16512   4.687   3.366   2.417
  468NSC    OBT16513   4.569   3.493   2.238
  468NSC     F116514   4.872   3.821   2.497
  468NSC     F116515   5.083   3.805   2.447
  468NSC     F116516   4.938   3.843   2.289
  468NSC    CBT16517   4.793   3.369   2.171
  468NSC     F116518   4.712   3.283   2.110
  468NSC     F116519   4.840   3.456   2.083
  468NSC     F116520   4.893   3.301   2.229
  469NSC    NBT16521   0.323   6.893   0.780
  469NSC    SBT16522   0.327   7.054   0.788
  469NSC    SBT16523   0.440   6.795   0.725
  469NSC    OBT16524   0.468   6.811   0.582
  469NSC    CBT16525   0.354   6.631   0.738
  469NSC    OBT16526   0.556   6.784   0.815
  469NSC    OBT16527   0.348   7.119   0.657
  469NSC    OBT16528   0.213   7.106   0.867
  469NSC     F116529   0.243   6.633   0.662
  469NSC     F116530   0.436   6.536   0.693
  469NSC     F116531   0.323   6.607   0.865
  469NSC    CBT16532   0.477   7.092   0.891
  469NSC     F116533   0.466   7.215   0.938
  469NSC     F116534   0.485   7.006   0.992
  469NSC     F116535   0.586   7.084   0.814
  470NSC    NBT16536   3.099   3.702   1.021
  470NSC    SBT16537   3.103   3.863   1.034
  470NSC    SBT16538   3.220   3.605   0.972
  470NSC    OBT16539   3.259   3.625   0.831
  470NSC    CBT16540   3.133   3.441   0.973
  470NSC    OBT16541   3.328   3.591   1.070
  470NSC    OBT16542   3.134   3.932   0.907
  470NSC    OBT16543   2.983   3.913   1.105
  470NSC     F116544   3.028   3.446   0.889
  470NSC     F116545   3.217   3.347   0.932
  470NSC     F116546   3.091   3.413   1.096
  470NSC    CBT16547   3.244   3.897   1.149
  470NSC     F116548   3.230   4.019   1.199
  470NSC     F116549   3.244   3.808   1.248
  470NSC     F116550   3.359   3.891   1.081
  471NSC    NBT16551   7.203   6.196   0.932
  471NSC    SBT16552   7.060   6.161   0.866
  471NSC    SBT16553   7.240   6.194   1.090
  471NSC    OBT16554   7.168   6.295   1.169
  471NSC    CBT16555   7.415   6.257   1.083
  471NSC    OBT16556   7.252   6.059   1.147
  471NSC    OBT16557   6.950   6.246   0.914
  471NSC    OBT16558   7.071   6.149   0.719
  471NSC     F116559   7.416   6.379   1.027
  471NSC     F116560   7.463   6.266   1.207
  471NSC     F116561   7.490   6.174   1.011
  471NSC    CBT16562   7.023   5.988   0.925
  471NSC     F116563   6.932   5.935   0.845
  471NSC     F116564   7.134   5.915   0.921
  471NSC     F116565   6.974   5.995   1.049
  472NSC    NBT16566   4.226   5.975   4.869
  472NSC    SBT16567   4.342   5.862   4.861
  472NSC    SBT16568   4.194   6.089   4.758
  472NSC    OBT16569   4.302   6.187   4.740
  472NSC    CBT16570   4.060   6.183   4.847
  472NSC    OBT16571   4.129   6.037   4.637
  472NSC    OBT16572   4.478   5.917   4.847
  472NSC    OBT16573   4.325   5.762   4.968
  472NSC     F116574   4.109   6.231   4.963
  472NSC     F116575   4.021   6.285   4.771
  472NSC     F116576   3.957   6.103   4.870
  472NSC    CBT16577   4.306   5.771   4.703
  472NSC     F116578   4.366   5.653   4.708
  472NSC     F116579   4.175   5.753   4.691
  472NSC     F116580   4.355   5.841   4.601
  473NSC    NBT16581   2.823   2.454   3.235
  473NSC    SBT16582   2.969   2.388   3.258
  473NSC    SBT16583   2.693   2.383   3.170
  473NSC    OBT16584   2.710   2.348   3.028
  473NSC    CBT16585   2.575   2.526   3.168
  473NSC    OBT16586   2.629   2.282   3.257
  473NSC    OBT16587   3.032   2.340   3.134
  473NSC    OBT16588   3.053   2.475   3.343
  473NSC     F116589   2.626   2.625   3.094
  473NSC     F116590   2.460   2.487   3.114
  473NSC     F116591   2.553   2.568   3.293
  473NSC    CBT16592   2.935   2.238   3.362
  473NSC     F116593   3.048   2.201   3.421
  473NSC     F116594   2.845   2.267   3.455
  473NSC     F116595   2.893   2.139   3.283
  474NSC    NBT16596   6.423   6.092   1.434
  474NSC    SBT16597   6.409   5.959   1.342
  474NSC    SBT16598   6.548   6.195   1.438
  474NSC    OBT16599   6.673   6.135   1.488
  474NSC    CBT16600   6.493   6.308   1.574
  474NSC    OBT16601   6.559   6.281   1.319
  474NSC    OBT16602   6.517   5.860   1.364
  474NSC    OBT16603   6.272   5.906   1.349
  474NSC     F116604   6.476   6.238   1.686
  474NSC     F116605   6.587   6.400   1.594
  474NSC     F116606   6.379   6.367   1.539
  474NSC    CBT16607   6.429   6.021   1.168
  474NSC     F116608   6.378   5.931   1.085
  474NSC     F116609   6.364   6.136   1.154
  474NSC     F116610   6.559   6.036   1.142
  475NSC    NBT16611   6.069   4.523   3.906
  475NSC    SBT16612   6.147   4.665   3.911
  475NSC    SBT16613   6.096   4.401   3.802
  475NSC    OBT16614   6.066   4.434   3.662
  475NSC    CBT16615   5.961   4.285   3.853
  475NSC    OBT16616   6.221   4.327   3.828
  475NSC    OBT16617   6.138   4.742   3.786
  475NSC    OBT16618   6.112   4.739   4.034
  475NSC     F116619   5.842   4.345   3.838
  475NSC     F116620   5.965   4.177   3.775
  475NSC     F116621   5.978   4.249   3.980
  475NSC    CBT16622   6.326   4.619   3.933
  475NSC     F116623   6.391   4.724   3.980
  475NSC     F116624   6.336   4.518   4.019
  475NSC     F116625   6.376   4.586   3.814
  476NSC    NBT16626   5.072   0.789   2.343
  476NSC    SBT16627   5.068   0.678   2.461
  476NSC    SBT16628   4.951   0.826   2.240
  476NSC    OBT16629   4.915   0.716   2.149
  476NSC    CBT16630   5.038   0.949   2.131
  476NSC    OBT16631   4.841   0.901   2.302
  476NSC    OBT16632   5.038   0.541   2.413
  476NSC    OBT16633   5.187   0.691   2.548
  476NSC     F116634   5.144   0.890   2.074
  476NSC     F116635   4.954   0.989   2.037
  476NSC     F116636   5.077   1.053   2.204
  476NSC    CBT16637   4.924   0.729   2.567
  476NSC     F116638   4.938   0.673   2.686
  476NSC     F116639   4.923   0.861   2.580
  476NSC     F116640   4.811   0.686   2.511
  477NSC    NBT16641   7.776   0.389   4.362
  477NSC    SBT16642   7.723   0.329   4.221
  477NSC    SBT16643   7.869   0.520   4.383
  477NSC    OBT16644   8.005   0.507   4.326
  477NSC    CBT16645   7.896   0.513   4.566
  477NSC    OBT16646   7.800   0.648   4.360
  477NSC    OBT16647   7.830   0.293   4.127
  477NSC    OBT16648   7.621   0.225   4.245
  477NSC     F116649   7.956   0.397   4.598
  477NSC     F116650   7.975   0.614   4.603
  477NSC     F116651   7.779   0.523   4.629
  477NSC    CBT16652   7.630   0.471   4.144
  477NSC     F116653   7.548   0.421   4.052
  477NSC     F116654   7.559   0.534   4.237
  477NSC     F116655   7.717   0.553   4.086
  478NSC    NBT16656   5.755   3.365   0.311
  478NSC    SBT16657   5.788   3.229   0.230
  478NSC    SBT16658   5.622   3.396   0.399
  478NSC    OBT16659   5.498   3.400   0.320
  478NSC    CBT16660   5.654   3.573   0.445
  478NSC    OBT16661   5.617   3.324   0.527
  478NSC    OBT16662   5.687   3.193   0.129
  478NSC    OBT16663   5.928   3.229   0.183
  478NSC     F116664   5.664   3.647   0.334
  478NSC     F116665   5.551   3.618   0.517
  478NSC     F116666   5.766   3.581   0.516
  478NSC    CBT16667   5.781   3.096   0.360
  478NSC     F116668   5.847   2.990   0.315
  478NSC     F116669   5.838   3.140   0.472
  478NSC     F116670   5.654   3.063   0.381
  479NSC    NBT16671   6.483   1.765   2.982
  479NSC    SBT16672   6.622   1.847   2.975
  479NSC    SBT16673   6.430   1.674   3.105
  479NSC    OBT16674   6.513   1.555   3.131
  479NSC    CBT16675   6.274   1.606   3.031
  479NSC    OBT16676   6.386   1.751   3.222
  479NSC    OBT16677   6.742   1.763   2.991
  479NSC    OBT16678   6.624   1.937   2.858
  479NSC     F116679   6.304   1.537   2.920
  479NSC     F116680   6.216   1.524   3.118
  479NSC     F116681   6.191   1.706   3.002
  479NSC    CBT16682   6.617   1.960   3.122
  479NSC     F116683   6.703   2.058   3.103
  479NSC     F116684   6.494   2.009   3.136
  479NSC     F116685   6.653   1.891   3.231
  480NSC    NBT16686   6.285   5.431   6.615
  480NSC    SBT16687   6.322   5.406   6.459
  480NSC    SBT16688   6.286   5.321   6.734
  480NSC    OBT16689   6.186   5.214   6.716
  480NSC    CBT16690   6.220   5.423   6.874
  480NSC    OBT16691   6.420   5.280   6.777
  480NSC    OBT16692   6.239   5.304   6.393
  480NSC    OBT16693   6.334   5.535   6.388
  480NSC     F116694   6.098   5.469   6.842
  480NSC     F116695   6.210   5.347   6.982
  480NSC     F116696   6.302   5.525   6.897
  480NSC    CBT16697   6.495   5.338   6.464
  480NSC     F116698   6.550   5.354   6.345
  480NSC     F116699   6.567   5.403   6.555
  480NSC     F116700   6.489   5.208   6.492
  481NSC    NBT16701   3.775   7.582   7.694
  481NSC    SBT16702   3.828   7.434   7.656
  481NSC    SBT16703   3.863   7.718   7.699
  481NSC    OBT16704   3.967   7.718   7.803
  481NSC    CBT16705   3.735   7.838   7.761
  481NSC    OBT16706   3.901   7.770   7.566
  481NSC    OBT16707   3.936   7.385   7.744
  481NSC    OBT16708   3.714   7.341   7.639
  481NSC     F116709   3.691   7.796   7.881
  481NSC     F116710   3.791   7.958   7.775
  481NSC     F116711   3.634   7.844   7.675
  481NSC    CBT16712   3.901   7.453   7.487
  481NSC     F116713   3.909   7.333   7.430
  481NSC     F116714   3.824   7.532   7.413
  481NSC     F116715   4.024   7.503   7.498
  482NSC    NBT16716   4.330   6.728   7.614
  482NSC    SBT16717   4.181   6.668   7.629
  482NSC    SBT16718   4.384   6.825   7.495
  482NSC    OBT16719   4.385   6.762   7.362
  482NSC    CBT16720   4.564   6.836   7.542
  482NSC    OBT16721   4.335   6.963   7.504
  482NSC    OBT16722   4.136   6.587   7.514
  482NSC    OBT16723   4.163   6.605   7.761
  482NSC     F116724   4.617   6.713   7.541
  482NSC     F116725   4.627   6.911   7.452
  482NSC     F116726   4.575   6.890   7.663
  482NSC    CBT16727   4.072   6.819   7.633
  482NSC     F116728   3.955   6.785   7.687
  482NSC     F116729   4.129   6.914   7.707
  482NSC     F116730   4.051   6.861   7.508
  483NSC    NBT16731   7.206   7.134   4.232
  483NSC    SBT16732   7.347   7.201   4.276
  483NSC    SBT16733   7.066   7.212   4.206
  483NSC    OBT16734   7.010   7.275   4.326
  483NSC    CBT16735   6.955   7.067   4.174
  483NSC    OBT16736   7.063   7.290   4.081
  483NSC    OBT16737   7.340   7.276   4.403
  483NSC    OBT16738   7.457   7.103   4.266
  483NSC     F116739   6.954   6.986   4.282
  483NSC     F116740   6.831   7.111   4.153
  483NSC     F116741   6.997   7.000   4.067
  483NSC    CBT16742   7.382   7.326   4.143
  483NSC     F116743   7.511   7.355   4.145
  483NSC     F116744   7.350   7.275   4.024
  483NSC     F116745   7.312   7.437   4.168
  484NSC    NBT16746   5.723   4.035   2.069
  484NSC    SBT16747   5.576   4.022   2.003
  484NSC    SBT16748   5.759   4.095   2.215
  484NSC    OBT16749   5.728   4.239   2.230
  484NSC    CBT16750   5.944   4.088   2.209
  484NSC    OBT16751   5.721   4.007   2.327
  484NSC    OBT16752   5.504   4.150   1.991
  484NSC    OBT16753   5.581   3.940   1.880
  484NSC     F116754   5.988   4.162   2.107
  484NSC     F116755   5.993   4.137   2.323
  484NSC     F116756   5.983   3.962   2.194
  484NSC    CBT16757   5.480   3.919   2.125
  484NSC     F116758   5.375   3.867   2.063
  484NSC     F116759   5.557   3.821   2.171
  484NSC     F116760   5.438   3.998   2.224
  485NSC    NBT16761   0.079   7.093   4.038
  485NSC    SBT16762   0.065   7.106   3.877
  485NSC    SBT16763   0.170   6.985   4.118
  485NSC    OBT16764   0.125   6.845   4.101
  485NSC    CBT16765   0.123   7.027   4.293
  485NSC    OBT16766   0.315   7.010   4.111
  485NSC    OBT16767   0.014   6.984   3.812
  485NSC    OBT16768  -0.006   7.231   3.841
  485NSC     F116769  -0.009   7.011   4.309
  485NSC     F116770   0.186   6.944   4.376
  485NSC     F116771   0.158   7.153   4.319
  485NSC    CBT16772   0.239   7.130   3.816
  485NSC     F116773   0.234   7.183   3.695
  485NSC     F116774   0.304   7.211   3.898
  485NSC     F116775   0.299   7.011   3.810
  486NSC    NBT16776   1.060   7.689   0.652
  486NSC    SBT16777   1.179   7.751   0.744
  486NSC    SBT16778   1.020   7.532   0.639
  486NSC    OBT16779   1.125   7.449   0.578
  486NSC    CBT16780   0.888   7.543   0.509
  486NSC    OBT16781   0.952   7.478   0.757
  486NSC    OBT16782   1.312   7.699   0.712
  486NSC    OBT16783   1.168   7.899   0.749
  486NSC     F116784   0.940   7.597   0.397
  486NSC     F116785   0.844   7.421   0.481
  486NSC     F116786   0.788   7.619   0.553
  486NSC    CBT16787   1.138   7.694   0.916
  486NSC     F116788   1.202   7.772   1.002
  486NSC     F116789   1.007   7.703   0.936
  486NSC     F116790   1.181   7.569   0.931
  487NSC    NBT16791   1.560   0.298   1.530
  487NSC    SBT16792   1.597   0.149   1.581
  487NSC    SBT16793   1.427   0.343   1.449
  487NSC    OBT16794   1.417   0.284   1.315
  487NSC    CBT16795   1.466   0.522   1.419
  487NSC    OBT16796   1.305   0.345   1.531
  487NSC    OBT16797   1.605   0.049   1.472
  487NSC    OBT16798   1.713   0.152   1.672
  487NSC     F116799   1.580   0.531   1.348
  487NSC     F116800   1.367   0.577   1.349
  487NSC     F116801   1.480   0.585   1.535
  487NSC    CBT16802   1.453   0.100   1.688
  487NSC     F116803   1.492   0.000   1.767
  487NSC     F116804   1.416   0.203   1.762
  487NSC     F116805   1.354   0.058   1.610
  488NSC    NBT16806   6.541   1.991   1.829
  488NSC    SBT16807   6.459   2.122   1.877
  488NSC    SBT16808   6.701   1.981   1.801
  488NSC    OBT16809   6.746   2.063   1.688
  488NSC    CBT16810   6.712   1.806   1.740
  488NSC    OBT16811   6.783   1.984   1.923
  488NSC    OBT16812   6.471   2.236   1.785
  488NSC    OBT16813   6.321   2.086   1.916
  488NSC     F116814   6.636   1.792   1.630
  488NSC     F116815   6.839   1.780   1.708
  488NSC     F116816   6.672   1.723   1.835
  488NSC    CBT16817   6.542   2.173   2.035
  488NSC     F116818   6.459   2.251   2.103
  488NSC     F116819   6.571   2.065   2.107
  488NSC     F116820   6.652   2.242   2.006
  489NSC    NBT16821   3.024   2.596   3.524
  489NSC    SBT16822   3.180   2.639   3.521
  489NSC    SBT16823   2.900   2.686   3.576
  489NSC    OBT16824   2.905   2.716   3.721
  489NSC    CBT16825   2.761   2.564   3.559
  489NSC    OBT16826   2.864   2.797   3.486
  489NSC    OBT16827   3.235   2.675   3.653
  489NSC    OBT16828   3.260   2.541   3.444
  489NSC     F116829   2.788   2.456   3.635
  489NSC     F116830   2.648   2.620   3.602
  489NSC     F116831   2.749   2.528   3.432
  489NSC    CBT16832   3.183   2.794   3.419
  489NSC     F116833   3.307   2.813   3.375
  489NSC     F116834   3.101   2.781   3.315
  489NSC     F116835   3.148   2.897   3.496
  490NSC    NBT16836   6.102   2.664   0.952
  490NSC    SBT16837   5.941   2.685   0.952
  490NSC    SBT16838   6.214   2.776   0.916
  490NSC    OBT16839   6.210   2.822   0.776
  490NSC    CBT16840   6.367   2.671   0.927
  490NSC    OBT16841   6.232   2.879   1.020
  490NSC    OBT16842   5.887   2.729   0.822
  490NSC    OBT16843   5.874   2.569   1.014
  490NSC     F116844   6.359   2.571   0.838
  490NSC     F116845   6.473   2.747   0.897
  490NSC     F116846   6.381   2.623   1.050
  490NSC    CBT16847   5.913   2.826   1.071
  490NSC     F116848   5.787   2.823   1.110
  490NSC     F116849   5.993   2.812   1.176
  490NSC     F116850   5.937   2.941   1.008
  491NSC    NBT16851   4.658   6.933   2.186
  491NSC    SBT16852   4.648   7.093   2.167
  491NSC    SBT16853   4.791   6.842   2.170
  491NSC    OBT16854   4.846   6.840   2.033
  491NSC    CBT16855   4.717   6.672   2.192
  491NSC    OBT16856   4.887   6.856   2.280
  491NSC    OBT16857   4.690   7.141   2.035
  491NSC    OBT16858   4.516   7.143   2.214
  491NSC     F116859   4.625   6.652   2.098
  491NSC     F116860   4.813   6.581   2.180
  491NSC     F116861   4.663   6.663   2.313
  491NSC    CBT16862   4.771   7.161   2.290
  491NSC     F116863   4.740   7.288   2.313
  491NSC     F116864   4.764   7.092   2.403
  491NSC     F116865   4.893   7.154   2.236
  492NSC    NBT16866   2.641   0.343   1.465
  492NSC    SBT16867   2.630   0.400   1.616
  492NSC    SBT16868   2.750   0.386   1.353
  492NSC    OBT16869   2.739   0.526   1.310
  492NSC    CBT16870   2.689   0.287   1.208
  492NSC    OBT16871   2.886   0.335   1.378
  492NSC    OBT16872   2.610   0.546   1.623
  492NSC    OBT16873   2.535   0.319   1.695
  492NSC     F116874   2.563   0.324   1.180
  492NSC     F116875   2.766   0.313   1.103
  492NSC     F116876   2.694   0.158   1.237
  492NSC    CBT16877   2.797   0.366   1.691
  492NSC     F116878   2.785   0.369   1.823
  492NSC     F116879   2.839   0.245   1.653
  492NSC     F116880   2.882   0.461   1.652
  493NSC    NBT16881   2.045   5.190   6.799
  493NSC    SBT16882   2.190   5.222   6.863
  493NSC    SBT16883   1.908   5.273   6.824
  493NSC    OBT16884   1.859   5.266   6.963
  493NSC    CBT16885   1.789   5.168   6.728
  493NSC    OBT16886   1.904   5.405   6.758
  493NSC    OBT16887   2.192   5.220   7.011
  493NSC    OBT16888   2.295   5.141   6.798
  493NSC     F116889   1.789   5.044   6.779
  493NSC     F116890   1.666   5.219   6.740
  493NSC     F116891   1.824   5.166   6.600
  493NSC    CBT16892   2.226   5.397   6.812
  493NSC     F116893   2.357   5.418   6.822
  493NSC     F116894   2.188   5.416   6.686
  493NSC     F116895   2.162   5.480   6.894
  494NSC    NBT16896   6.100   5.409   0.630
  494NSC    SBT16897   5.947   5.459   0.645
  494NSC    SBT16898   6.219   5.486   0.550
  494NSC    OBT16899   6.197   5.496   0.405
  494NSC    CBT16900   6.356   5.361   0.568
  494NSC    OBT16901   6.269   5.606   0.619
  494NSC    OBT16902   5.877   5.478   0.517
  494NSC    OBT16903   5.876   5.376   0.745
  494NSC     F116904   6.317   5.245   0.512
  494NSC     F116905   6.464   5.406   0.505
  494NSC     F116906   6.383   5.343   0.697
  494NSC    CBT16907   5.961   5.627   0.724
  494NSC     F116908   5.844   5.658   0.779
  494NSC     F116909   6.055   5.625   0.817
  494NSC     F116910   5.989   5.717   0.629
  495NSC    NBT16911   4.588   7.343   0.278
  495NSC    SBT16912   4.664   7.432   0.390
  495NSC    SBT16913   4.478   7.396   0.170
  495NSC    OBT16914   4.353   7.444   0.232
  495NSC    CBT16915   4.431   7.236   0.090
  495NSC    OBT16916   4.534   7.478   0.062
  495NSC    OBT16917   4.573   7.498   0.485
  495NSC    OBT16918   4.774   7.354   0.451
  495NSC     F116919   4.382   7.152   0.182
  495NSC     F116920   4.337   7.259  -0.002
  495NSC     F116921   4.538   7.182   0.031
  495NSC    CBT16922   4.748   7.566   0.293
  495NSC     F116923   4.845   7.617   0.368
  495NSC     F116924   4.799   7.516   0.181
  495NSC     F116925   4.659   7.662   0.266
  496NSC    NBT16926   0.655   6.819   6.081
  496NSC    SBT16927   0.786   6.872   6.160
  496NSC    SBT16928   0.648   6.770   5.927
  496NSC    OBT16929   0.675   6.877   5.829
  496NSC    CBT16930   0.465   6.738   5.911
  496NSC    OBT16931   0.711   6.639   5.902
  496NSC    OBT16932   0.848   6.990   6.098
  496NSC    OBT16933   0.758   6.883   6.305
  496NSC     F116934   0.398   6.851   5.936
  496NSC     F116935   0.439   6.699   5.786
  496NSC     F116936   0.429   6.643   5.996
  496NSC    CBT16937   0.909   6.733   6.144
  496NSC     F116938   1.001   6.747   6.239
  496NSC     F116939   0.847   6.617   6.160
  496NSC     F116940   0.967   6.740   6.025
  497NSC    NBT16941   6.077   2.117   2.617
  497NSC    SBT16942   6.181   2.240   2.636
  497NSC    SBT16943   6.110   1.959   2.630
  497NSC    OBT16944   6.203   1.909   2.527
  497NSC    CBT16945   5.945   1.887   2.582
  497NSC    OBT16946   6.133   1.913   2.768
  497NSC    OBT16947   6.296   2.235   2.543
  497NSC    OBT16948   6.109   2.369   2.641
  497NSC     F116949   5.914   1.927   2.458
  497NSC     F116950   5.954   1.755   2.584
  497NSC     F116951   5.853   1.928   2.669
  497NSC    CBT16952   6.250   2.216   2.807
  497NSC     F116953   6.302   2.331   2.848
  497NSC     F116954   6.152   2.179   2.889
  497NSC     F116955   6.346   2.123   2.802
  498NSC    NBT16956   7.254   3.244   1.435
  498NSC    SBT16957   7.157   3.121   1.475
  498NSC    SBT16958   7.355   3.324   1.534
  498NSC    OBT16959   7.286   3.399   1.641
  498NSC    CBT16960   7.417   3.456   1.418
  498NSC    OBT16961   7.475   3.248   1.572
  498NSC    OBT16962   7.061   3.153   1.581
  498NSC    OBT16963   7.100   3.059   1.354
  498NSC     F116964   7.313   3.528   1.374
  498NSC     F116965   7.501   3.535   1.484
  498NSC     F116966   7.480   3.399   1.316
  498NSC    CBT16967   7.273   2.993   1.544
  498NSC     F116968   7.212   2.875   1.540
  498NSC     F116969   7.384   2.988   1.472
  498NSC     F116970   7.300   3.023   1.671
  499NSC    NBT16971   6.728   4.563   6.251
  499NSC    SBT16972   6.817   4.428   6.255
  499NSC    SBT16973   6.571   4.574   6.209
  499NSC    OBT16974   6.546   4.542   6.067
  499NSC    CBT16975   6.548   4.758   6.219
  499NSC    OBT16976   6.478   4.519   6.308
  499NSC    OBT16977   6.827   4.360   6.125
  499NSC    OBT16978   6.946   4.454   6.323
  499NSC     F116979   6.633   4.818   6.134
  499NSC     F116980   6.424   4.788   6.183
  499NSC     F116981   6.571   4.800   6.343
  499NSC    CBT16982   6.725   4.315   6.369
  499NSC     F116983   6.808   4.221   6.412
  499NSC     F116984   6.678   4.383   6.473
  499NSC     F116985   6.626   4.257   6.301
  500NSC    NBT16986   0.985   6.861   1.384
  500NSC    SBT16987   1.044   6.722   1.441
  500NSC    SBT16988   0.828   6.899   1.364
  500NSC    OBT16989   0.760   6.816   1.262
  500NSC    CBT16990   0.844   7.066   1.285
  500NSC    OBT16991   0.755   6.923   1.490
  500NSC    OBT16992   1.005   6.604   1.362
  500NSC    OBT16993   1.189   6.735   1.468
  500NSC     F116994   0.913   7.054   1.170
  500NSC     F116995   0.722   7.113   1.257
  500NSC     F116996   0.906   7.149   1.368
  500NSC    CBT16997   0.966   6.703   1.608
  500NSC     F116998   1.038   6.618   1.679
  500NSC     F116999   0.963   6.821   1.669
  500NSC     F117000   0.843   6.654   1.593
   0.00000   0.00000   0.00000
