EMIM molecule
19
    1EMI    C01    1   0.089   0.091  -0.103
    1EMI    C04    2   0.294   0.176  -0.065
    1EMI    C03    3   0.207   0.277  -0.054
    1EMI    H07    4   0.009   0.023  -0.124
    1EMI    H09    5   0.401   0.182  -0.053
    1EMI    H08    6   0.229   0.379  -0.032
    1EMI    C05    7  -0.053   0.292  -0.078
    1EMI    H0B    8  -0.131   0.226  -0.048
    1EMI    H0C    9  -0.046   0.374  -0.010
    1EMI    H0D   10  -0.073   0.329  -0.176
    1EMI    N00   11   0.075   0.219  -0.079
    1EMI    C06   12   0.269  -0.078  -0.117
    1EMI    H0F   13   0.292  -0.092  -0.220
    1EMI    C0N   14   0.397  -0.096  -0.033
    1EMI    H0O   15   0.436  -0.195  -0.048
    1EMI    H0P   16   0.470  -0.024  -0.063
    1EMI    H0Q   17   0.373  -0.082   0.071
    1EMI    N02   18   0.215   0.057  -0.096
    1EMI    H0E   19   0.196  -0.150  -0.087
3.00000 3.00000 3.00000
