NTF2.pdb
15
    1NSC    NBT    1  -0.014  -0.079  -0.007
    1NSC    SBT    2  -0.173  -0.050  -0.001
    1NSC    SBT    3   0.101   0.022  -0.061
    1NSC    OBT    4   0.091   0.052  -0.205
    1NSC    CBT    5   0.250  -0.088  -0.047
    1NSC    OBT    6   0.129   0.135   0.029
    1NSC    OBT    7  -0.233  -0.019  -0.132
    1NSC    OBT    8  -0.242  -0.155   0.077
    1NSC     F1    9   0.232  -0.197  -0.123
    1NSC     F1   10   0.357  -0.022  -0.091
    1NSC     F1   11   0.268  -0.123   0.080
    1NSC    CBT   12  -0.188   0.104   0.102
    1NSC     F1   13  -0.312   0.112   0.148
    1NSC     F1   14  -0.103   0.098   0.204
    1NSC     F1   15  -0.163   0.210   0.025
   0.00000   0.00000   0.00000
