../EMIM_NTF2_10_10.pdb
340
    1EMI    C01    1   0.936   1.205   1.123
    1EMI    C04    2   0.849   1.400   1.195
    1EMI    C03    3   0.933   1.357   1.289
    1EMI    H07    4   0.959   1.119   1.064
    1EMI    H09    5   0.790   1.490   1.197
    1EMI    H08    6   0.956   1.405   1.382
    1EMI    C05    7   1.086   1.146   1.311
    1EMI    H0B    8   1.146   1.094   1.239
    1EMI    H0C    9   1.148   1.208   1.372
    1EMI    H0D   10   1.034   1.076   1.372
    1EMI    N00   11   0.988   1.230   1.240
    1EMI    C06   12   0.776   1.304   0.963
    1EMI    H0F   13   0.682   1.255   0.977
    1EMI    C0N   14   0.752   1.451   0.923
    1EMI    H0O   15   0.696   1.455   0.832
    1EMI    H0P   16   0.697   1.501   1.001
    1EMI    H0Q   17   0.846   1.500   0.909
    1EMI    N02   18   0.853   1.299   1.088
    1EMI    H0E   19   0.831   1.255   0.886
    2EMI    C01   20   1.321   0.293   1.153
    2EMI    C04   21   1.097   0.302   1.181
    2EMI    C03   22   1.124   0.355   1.061
    2EMI    H07   23   1.425   0.275   1.169
    2EMI    H09   24   1.000   0.291   1.226
    2EMI    H08   25   1.054   0.394   0.990
    2EMI    C05   26   1.346   0.393   0.928
    2EMI    H0B   27   1.434   0.334   0.918
    2EMI    H0C   28   1.286   0.384   0.840
    2EMI    H0D   29   1.373   0.496   0.942
    2EMI    N00   30   1.270   0.347   1.045
    2EMI    C06   31   1.246   0.201   1.370
    2EMI    H0F   32   1.260   0.278   1.444
    2EMI    C0N   33   1.122   0.117   1.406
    2EMI    H0O   34   1.137   0.072   1.502
    2EMI    H0P   35   1.036   0.180   1.409
    2EMI    H0Q   36   1.108   0.041   1.332
    2EMI    N02   37   1.226   0.263   1.238
    2EMI    H0E   38   1.332   0.138   1.367
    3EMI    C01   39   0.847   0.105   0.888
    3EMI    C04   40   1.032   0.122   1.015
    3EMI    C03   41   0.930   0.095   1.097
    3EMI    H07   42   0.780   0.104   0.805
    3EMI    H09   43   1.135   0.136   1.042
    3EMI    H08   44   0.935   0.083   1.204
    3EMI    C05   45   0.675   0.056   1.059
    3EMI    H0B   46   0.621   0.004   0.982
    3EMI    H0C   47   0.679  -0.005   1.147
    3EMI    H0D   48   0.625   0.148   1.082
    3EMI    N00   49   0.811   0.085   1.012
    3EMI    C06   50   1.050   0.155   0.757
    3EMI    H0F   51   1.052   0.261   0.739
    3EMI    C0N   52   1.194   0.104   0.772
    3EMI    H0O   53   1.249   0.124   0.682
    3EMI    H0P   54   1.242   0.154   0.854
    3EMI    H0Q   55   1.193  -0.002   0.790
    3EMI    N02   56   0.975   0.128   0.880
    3EMI    H0E   57   1.003   0.105   0.675
    4EMI    C01   58   0.556   0.899   0.618
    4EMI    C04   59   0.650   0.697   0.650
    4EMI    C03   60   0.534   0.676   0.588
    4EMI    H07   61   0.537   1.004   0.618
    4EMI    H09   62   0.721   0.622   0.681
    4EMI    H08   63   0.492   0.582   0.559
    4EMI    C05   64   0.345   0.836   0.504
    4EMI    H0B   65   0.349   0.932   0.457
    4EMI    H0C   66   0.326   0.761   0.431
    4EMI    H0D   67   0.268   0.836   0.578
    4EMI    N00   68   0.475   0.809   0.569
    4EMI    C06   69   0.774   0.911   0.733
    4EMI    H0F   70   0.756   0.921   0.837
    4EMI    C0N   71   0.904   0.831   0.711
    4EMI    H0O   72   0.986   0.881   0.757
    4EMI    H0P   73   0.893   0.733   0.754
    4EMI    H0Q   74   0.923   0.821   0.606
    4EMI    N02   75   0.662   0.842   0.668
    4EMI    H0E   76   0.785   1.008   0.689
    5EMI    C01   77   0.844   0.279   0.076
    5EMI    C04   78   0.951   0.113   0.185
    5EMI    C03   79   0.821   0.083   0.184
    5EMI    H07   80   0.823   0.369   0.022
    5EMI    H09   81   1.030   0.056   0.229
    5EMI    H08   82   0.775  -0.004   0.227
    5EMI    C05   83   0.610   0.202   0.087
    5EMI    H0B   84   0.593   0.255  -0.004
    5EMI    H0C   85   0.568   0.103   0.079
    5EMI    H0D   86   0.562   0.253   0.168
    5EMI    N00   87   0.754   0.192   0.113
    5EMI    C06   88   1.088   0.314   0.090
    5EMI    H0F   89   1.107   0.381   0.172
    5EMI    C0N   90   1.205   0.214   0.079
    5EMI    H0O   91   1.296   0.267   0.062
    5EMI    H0P   92   1.213   0.158   0.170
    5EMI    H0Q   93   1.187   0.147  -0.002
    5EMI    N02   94   0.963   0.241   0.114
    5EMI    H0E   95   1.080   0.370  -0.001
    6EMI    C01   96   0.359   0.688   0.840
    6EMI    C04   97   0.143   0.721   0.895
    6EMI    C03   98   0.217   0.782   0.988
    6EMI    H07   99   0.448   0.657   0.790
    6EMI    H09  100   0.036   0.716   0.890
    6EMI    H08  101   0.181   0.837   1.072
    6EMI    C05  102   0.474   0.809   1.022
    6EMI    H0B  103   0.554   0.826   0.954
    6EMI    H0C  104   0.450   0.901   1.072
    6EMI    H0D  105   0.504   0.736   1.095
    6EMI    N00  106   0.356   0.760   0.949
    6EMI    C06  107   0.202   0.583   0.681
    6EMI    H0F  108   0.194   0.479   0.707
    6EMI    C0N  109   0.066   0.632   0.626
    6EMI    H0O  110   0.040   0.575   0.540
    6EMI    H0P  111  -0.009   0.619   0.701
    6EMI    H0Q  112   0.074   0.735   0.600
    6EMI    N02  113   0.237   0.661   0.801
    6EMI    H0E  114   0.277   0.595   0.606
    7EMI    C01  115   0.081   1.256   1.255
    7EMI    C04  116   0.231   1.321   1.099
    7EMI    C03  117   0.241   1.406   1.201
    7EMI    H07  118   0.004   1.203   1.307
    7EMI    H09  119   0.287   1.322   1.007
    7EMI    H08  120   0.307   1.490   1.209
    7EMI    C05  121   0.119   1.425   1.431
    7EMI    H0B  122   0.086   1.352   1.501
    7EMI    H0C  123   0.209   1.471   1.466
    7EMI    H0D  124   0.043   1.500   1.420
    7EMI    N00  125   0.143   1.362   1.301
    7EMI    C06  126   0.080   1.112   1.054
    7EMI    H0F  127  -0.001   1.144   0.992
    7EMI    C0N  128   0.196   1.062   0.966
    7EMI    H0O  129   0.162   0.980   0.906
    7EMI    H0P  130   0.229   1.141   0.902
    7EMI    H0Q  131   0.277   1.030   1.028
    7EMI    N02  132   0.126   1.225   1.136
    7EMI    H0E  133   0.047   1.033   1.118
    8EMI    C01  134   0.419   0.520   1.405
    8EMI    C04  135   0.461   0.397   1.221
    8EMI    C03  136   0.354   0.473   1.195
    8EMI    H07  137   0.425   0.562   1.504
    8EMI    H09  138   0.508   0.327   1.155
    8EMI    H08  139   0.298   0.475   1.103
    8EMI    C05  140   0.221   0.649   1.333
    8EMI    H0B  141   0.253   0.726   1.401
    8EMI    H0C  142   0.198   0.694   1.239
    8EMI    H0D  143   0.135   0.600   1.373
    8EMI    N00  144   0.330   0.551   1.316
    8EMI    C06  145   0.614   0.371   1.431
    8EMI    H0F  146   0.582   0.283   1.483
    8EMI    C0N  147   0.725   0.332   1.331
    8EMI    H0O  148   0.807   0.289   1.384
    8EMI    H0P  149   0.686   0.260   1.261
    8EMI    H0Q  150   0.758   0.419   1.278
    8EMI    N02  151   0.501   0.430   1.358
    8EMI    H0E  152   0.653   0.442   1.501
    9EMI    C01  153   1.218   1.032   0.780
    9EMI    C04  154   1.249   0.810   0.811
    9EMI    C03  155   1.188   0.826   0.693
    9EMI    H07  156   1.217   1.138   0.794
    9EMI    H09  157   1.278   0.718   0.857
    9EMI    H08  158   1.159   0.748   0.625
    9EMI    C05  159   1.107   1.034   0.559
    9EMI    H0B  160   1.149   1.132   0.545
    9EMI    H0C  161   1.123   0.975   0.472
    9EMI    H0D  162   1.001   1.044   0.576
    9EMI    N00  163   1.169   0.970   0.675
    9EMI    C06  164   1.329   0.978   0.994
    9EMI    H0F  165   1.254   0.980   1.071
    9EMI    C0N  166   1.435   0.872   1.028
    9EMI    H0O  167   1.480   0.896   1.122
    9EMI    H0P  168   1.389   0.776   1.035
    9EMI    H0Q  169   1.510   0.870   0.952
    9EMI    N02  170   1.266   0.945   0.865
    9EMI    H0E  171   1.376   1.074   0.988
   10EMI    C01  172   0.782   1.106   0.421
   10EMI    C04  173   0.561   1.155   0.431
   10EMI    C03  174   0.625   1.243   0.509
   10EMI    H07  175   0.875   1.060   0.397
   10EMI    H09  176   0.456   1.150   0.413
   10EMI    H08  177   0.581   1.322   0.566
   10EMI    C05  178   0.876   1.279   0.571
   10EMI    H0B  179   0.966   1.272   0.513
   10EMI    H0C  180   0.850   1.382   0.584
   10EMI    H0D  181   0.893   1.233   0.666
   10EMI    N00  182   0.767   1.209   0.501
   10EMI    C06  183   0.642   0.956   0.284
   10EMI    H0F  184   0.626   0.866   0.340
   10EMI    C0N  185   0.518   0.985   0.197
   10EMI    H0O  186   0.501   0.903   0.130
   10EMI    H0P  187   0.432   0.997   0.261
   10EMI    H0Q  188   0.534   1.074   0.141
   10EMI    N02  189   0.665   1.068   0.376
   10EMI    H0E  190   0.727   0.943   0.220
    1NSC    NBT  191   1.226   1.307   0.654
    1NSC    SBT  192   1.139   1.367   0.776
    1NSC    SBT  193   1.359   1.373   0.587
    1NSC    OBT  194   1.333   1.501   0.518
    1NSC    CBT  195   1.390   1.252   0.449
    1NSC    OBT  196   1.479   1.365   0.672
    1NSC    OBT  197   1.083   1.501   0.749
    1NSC    OBT  198   1.042   1.267   0.824
    1NSC     F1  199   1.283   1.249   0.368
    1NSC     F1  200   1.496   1.292   0.379
    1NSC     F1  201   1.413   1.131   0.500
    1NSC    CBT  202   1.261   1.387   0.914
    1NSC     F1  203   1.194   1.395   1.028
    1NSC     F1  204   1.343   1.282   0.918
    1NSC     F1  205   1.329   1.500   0.896
    2NSC    NBT  206   0.364   1.285   0.561
    2NSC    SBT  207   0.306   1.368   0.435
    2NSC    SBT  208   0.363   1.330   0.717
    2NSC    OBT  209   0.445   1.449   0.745
    2NSC    CBT  210   0.458   1.189   0.792
    2NSC    OBT  211   0.230   1.324   0.780
    2NSC    OBT  212   0.366   1.502   0.419
    2NSC    OBT  213   0.303   1.284   0.314
    2NSC     F1  214   0.580   1.184   0.737
    2NSC     F1  215   0.470   1.210   0.923
    2NSC     F1  216   0.393   1.075   0.771
    2NSC    CBT  217   0.127   1.397   0.478
    2NSC     F1  218   0.061   1.426   0.367
    2NSC     F1  219   0.076   1.287   0.533
    2NSC     F1  220   0.119   1.500   0.562
    3NSC    NBT  221   0.146   0.891   0.095
    3NSC    SBT  222   0.176   1.050   0.097
    3NSC    SBT  223   0.198   0.780   0.201
    3NSC    OBT  224   0.344   0.762   0.202
    3NSC    CBT  225   0.132   0.626   0.122
    3NSC    OBT  226   0.131   0.787   0.332
    3NSC    OBT  227   0.320   1.083   0.093
    3NSC    OBT  228   0.091   1.121  -0.001
    3NSC     F1  229   0.184   0.613  -0.001
    3NSC     F1  230   0.168   0.521   0.196
    3NSC     F1  231  -0.001   0.632   0.115
    3NSC    CBT  232   0.114   1.106   0.263
    3NSC     F1  233   0.095   1.237   0.259
    3NSC     F1  234  -0.001   1.045   0.291
    3NSC     F1  235   0.206   1.078   0.356
    4NSC    NBT  236   0.126   0.086   1.184
    4NSC    SBT  237   0.119   0.120   1.342
    4NSC    SBT  238   0.125   0.192   1.062
    4NSC    OBT  239  -0.000   0.269   1.050
    4NSC    CBT  240   0.122   0.076   0.917
    4NSC    OBT  241   0.251   0.267   1.047
    4NSC    OBT  242  -0.001   0.196   1.382
    4NSC    OBT  243   0.147  -0.002   1.422
    4NSC     F1  244   0.011  -0.000   0.924
    4NSC     F1  245   0.118   0.147   0.804
    4NSC     F1  246   0.230  -0.000   0.918
    4NSC    CBT  247   0.265   0.231   1.371
    4NSC     F1  248   0.293   0.230   1.501
    4NSC     F1  249   0.369   0.187   1.302
    4NSC     F1  250   0.232   0.355   1.335
    5NSC    NBT  251   0.959   1.206   0.082
    5NSC    SBT  252   0.887   1.349   0.061
    5NSC    SBT  253   1.094   1.177   0.168
    5NSC    OBT  254   1.214   1.241   0.113
    5NSC    CBT  255   1.116   0.996   0.132
    5NSC    OBT  256   1.075   1.184   0.314
    5NSC    OBT  257   0.973   1.451  -0.001
    5NSC    OBT  258   0.754   1.332  -0.001
    5NSC     F1  259   1.131   0.978  -0.000
    5NSC     F1  260   1.227   0.953   0.193
    5NSC     F1  261   1.012   0.928   0.177
    5NSC    CBT  262   0.851   1.408   0.234
    5NSC     F1  263   0.756   1.501   0.228
    5NSC     F1  264   0.809   1.306   0.308
    5NSC     F1  265   0.962   1.462   0.285
    6NSC    NBT  266   1.255   0.472   0.306
    6NSC    SBT  267   1.351   0.495   0.177
    6NSC    SBT  268   1.294   0.497   0.461
    6NSC    OBT  269   1.400   0.408   0.511
    6NSC    CBT  270   1.139   0.435   0.544
    6NSC    OBT  271   1.303   0.639   0.499
    6NSC    OBT  272   1.476   0.417   0.180
    6NSC    OBT  273   1.273   0.486   0.052
    6NSC     F1  274   1.120   0.306   0.511
    6NSC     F1  275   1.154   0.445   0.676
    6NSC     F1  276   1.036   0.508   0.504
    6NSC    CBT  277   1.401   0.674   0.189
    6NSC     F1  278   1.442   0.714   0.070
    6NSC     F1  279   1.296   0.747   0.227
    6NSC     F1  280   1.501   0.685   0.277
    7NSC    NBT  281   0.568   0.384   0.439
    7NSC    SBT  282   0.601   0.268   0.547
    7NSC    SBT  283   0.676   0.461   0.345
    7NSC    OBT  284   0.771   0.544   0.420
    7NSC    CBT  285   0.564   0.583   0.261
    7NSC    OBT  286   0.730   0.379   0.235
    7NSC    OBT  287   0.694   0.310   0.653
    7NSC    OBT  288   0.475   0.205   0.595
    7NSC     F1  289   0.505   0.661   0.354
    7NSC     F1  290   0.636   0.660   0.180
    7NSC     F1  291   0.471   0.519   0.191
    7NSC    CBT  292   0.687   0.136   0.450
    7NSC     F1  293   0.680   0.022   0.517
    7NSC     F1  294   0.628   0.122   0.332
    7NSC     F1  295   0.815   0.170   0.435
    8NSC    NBT  296   1.226   0.755   1.181
    8NSC    SBT  297   1.354   0.675   1.238
    8NSC    SBT  298   1.086   0.690   1.129
    8NSC    OBT  299   1.101   0.608   1.008
    8NSC    CBT  300   0.999   0.844   1.071
    8NSC    OBT  301   1.001   0.637   1.236
    8NSC    OBT  302   1.411   0.578   1.142
    8NSC    OBT  303   1.451   0.768   1.298
    8NSC     F1  304   1.072   0.902   0.975
    8NSC     F1  305   0.881   0.810   1.020
    8NSC     F1  306   0.982   0.927   1.173
    8NSC    CBT  307   1.288   0.576   1.380
    8NSC     F1  308   1.389   0.541   1.458
    8NSC     F1  309   1.201   0.649   1.449
    8NSC     F1  310   1.229   0.466   1.333
    9NSC    NBT  311   0.562   0.467   0.832
    9NSC    SBT  312   0.422   0.394   0.799
    9NSC    SBT  313   0.643   0.463   0.972
    9NSC    OBT  314   0.573   0.528   1.084
    9NSC    CBT  315   0.783   0.579   0.932
    9NSC    OBT  316   0.709   0.334   1.000
    9NSC    OBT  317   0.311   0.434   0.888
    9NSC    OBT  318   0.392   0.400   0.654
    9NSC     F1  319   0.733   0.699   0.901
    9NSC     F1  320   0.861   0.591   1.039
    9NSC     F1  321   0.854   0.530   0.830
    9NSC    CBT  322   0.454   0.214   0.834
    9NSC     F1  323   0.362   0.142   0.772
    9NSC     F1  324   0.575   0.181   0.789
    9NSC     F1  325   0.444   0.193   0.966
   10NSC    NBT  326   0.568   0.884   1.290
   10NSC    SBT  327   0.603   0.744   1.363
   10NSC    SBT  328   0.617   1.031   1.336
   10NSC    OBT  329   0.563   1.075   1.466
   10NSC    CBT  330   0.528   1.136   1.211
   10NSC    OBT  331   0.760   1.058   1.311
   10NSC    OBT  332   0.558   0.737   1.503
   10NSC    OBT  333   0.561   0.630   1.278
   10NSC     F1  334   0.396   1.115   1.223
   10NSC     F1  335   0.553   1.264   1.235
   10NSC     F1  336   0.568   1.104   1.088
   10NSC    CBT  337   0.788   0.737   1.365
   10NSC     F1  338   0.826   0.611   1.383
   10NSC     F1  339   0.836   0.782   1.250
   10NSC     F1  340   0.833   0.811   1.467
   1.50000   1.5000   1.5000
